
     Program BANDS v.7.2 starts on 27Apr2026 at 20:48: 4 

     This program is part of the open-source Quantum ESPRESSO suite
     for quantum simulation of materials; please cite
         "P. Giannozzi et al., J. Phys.:Condens. Matter 21 395502 (2009);
         "P. Giannozzi et al., J. Phys.:Condens. Matter 29 465901 (2017);
         "P. Giannozzi et al., J. Chem. Phys. 152 154105 (2020);
          URL http://www.quantum-espresso.org", 
     in publications or presentations arising from this work. More details at
     http://www.quantum-espresso.org/quote

     Parallel version (MPI & OpenMP), running on       1 processor cores
     Number of MPI processes:                 1
     Threads/MPI process:                     1

     MPI processes distributed on     1 nodes
     34559 MiB available memory on the printing compute node when the environment starts
 

     Reading xml data from directory:

     ./tmp/Si.save/

     IMPORTANT: XC functional enforced from input :
     Exchange-correlation= PBE
                           (   1   4   3   4   0   0   0)
     Any further DFT definition will be discarded
     Please, verify this is what you really want

 
     G-vector sticks info
     --------------------
     sticks:   dense  smooth     PW     G-vecs:    dense   smooth      PW
     Sum         361     361    121                 4477     4477     869
 
     Using Slab Decomposition
 
     Reading collected, re-writing distributed wavefunctions
     high-symmetry point:  0.5000 0.5000 0.5000   x coordinate   0.0000
     high-symmetry point:  0.0000 0.0000 0.0000   x coordinate   0.8660
     high-symmetry point:  1.0000 0.0000 0.0000   x coordinate   1.8660
     high-symmetry point:  1.0000 0.2500 0.2500   x coordinate   2.2196
     high-symmetry point:  0.0000 0.0000 0.0000   x coordinate   3.2802

     Plottable bands (eV) written to file bandx.dat.gnu
     Bands written to file bandx.dat

 **************************************************************************

                    xk=(   0.50000,   0.50000,   0.50000  )

     zone border point and non-symmorphic group 
     symmetry decomposition not available

 **************************************************************************

 **************************************************************************

                    xk=(   0.49000,   0.49000,   0.49000  )

     point group C_3v (3m)  
     there are  3 classes
     the character table:

       E     2C3   3s_v 
A_1    1.00  1.00  1.00
A_2    1.00  1.00 -1.00
E      2.00 -1.00  0.00

     the symmetry operations in each class and the name of the first element:

     E        1
                                                                 
     2C3      2    3
                                                                 
     3s_v     4    5    6
                                                                 

     Band symmetry, C_3v (3m)   point group:

     e(  1 -  1) =     -3.26213  eV     1   --> A_1  L_1       
     e(  2 -  2) =     -0.59631  eV     1   --> A_1  L_1       
     e(  3 -  4) =      5.25353  eV     2   --> E    L_3       
     e(  5 -  5) =      8.04660  eV     1   --> A_1  L_1       
     e(  6 -  7) =      9.78604  eV     2   --> E    L_3       
     e(  8 -  8) =     14.19569  eV     1   --> A_1  L_1       
     e(  9 - 10) =     17.03327  eV     2   --> E    L_3       
     e( 11 - 11) =     17.94147  eV     1   --> A_1  L_1       
     e( 12 - 12) =     17.96544  eV     1   -->   ?

 **************************************************************************

 **************************************************************************

                    xk=(   0.48000,   0.48000,   0.48000  )

     Band symmetry, C_3v (3m)   point group:

     e(  1 -  1) =     -3.27980  eV     1   --> A_1  L_1       
     e(  2 -  2) =     -0.57110  eV     1   --> A_1  L_1       
     e(  3 -  4) =      5.25570  eV     2   --> E    L_3       
     e(  5 -  5) =      8.04908  eV     1   --> A_1  L_1       
     e(  6 -  7) =      9.78869  eV     2   --> E    L_3       
     e(  8 -  8) =     14.19975  eV     1   --> A_1  L_1       
     e(  9 - 10) =     16.90894  eV     2   --> E    L_3       
     e( 11 - 11) =     17.87843  eV     1   --> A_1  L_1       
     e( 12 - 12) =     18.09893  eV     1   -->   ?

 **************************************************************************

 **************************************************************************

                    xk=(   0.47000,   0.47000,   0.47000  )

     Band symmetry, C_3v (3m)   point group:

     e(  1 -  1) =     -3.30851  eV     1   --> A_1  L_1       
     e(  2 -  2) =     -0.52984  eV     1   --> A_1  L_1       
     e(  3 -  4) =      5.25932  eV     2   --> E    L_3       
     e(  5 -  5) =      8.05321  eV     1   --> A_1  L_1       
     e(  6 -  7) =      9.79308  eV     2   --> E    L_3       
     e(  8 -  8) =     14.20647  eV     1   --> A_1  L_1       
     e(  9 - 10) =     16.74900  eV     2   --> E    L_3       
     e( 11 - 11) =     17.78187  eV     1   --> A_1  L_1       
     e( 12 - 12) =     18.27411  eV     1   -->   ?

 **************************************************************************

 **************************************************************************

                    xk=(   0.46000,   0.46000,   0.46000  )

     Band symmetry, C_3v (3m)   point group:

     e(  1 -  1) =     -3.34725  eV     1   --> A_1  L_1       
     e(  2 -  2) =     -0.47353  eV     1   --> A_1  L_1       
     e(  3 -  4) =      5.26440  eV     2   --> E    L_3       
     e(  5 -  5) =      8.05898  eV     1   --> A_1  L_1       
     e(  6 -  7) =      9.79917  eV     2   --> E    L_3       
     e(  8 -  8) =     14.21577  eV     1   --> A_1  L_1       
     e(  9 - 10) =     16.57408  eV     2   --> E    L_3       
     e( 11 - 11) =     17.66032  eV     1   --> A_1  L_1       
     e( 12 - 12) =     18.47030  eV     1   -->   ?

 **************************************************************************

 **************************************************************************

                    xk=(   0.45000,   0.45000,   0.45000  )

     Band symmetry, C_3v (3m)   point group:

     e(  1 -  1) =     -3.39480  eV     1   --> A_1  L_1       
     e(  2 -  2) =     -0.40339  eV     1   --> A_1  L_1       
     e(  3 -  4) =      5.27092  eV     2   --> E    L_3       
     e(  5 -  5) =      8.06640  eV     1   --> A_1  L_1       
     e(  6 -  7) =      9.80688  eV     2   --> E    L_3       
     e(  8 -  8) =     14.22754  eV     1   --> A_1  L_1       
     e(  9 - 10) =     16.39338  eV     2   --> E    L_3       
     e( 11 - 11) =     17.52111  eV     1   --> A_1  L_1       
     e( 12 - 12) =     18.67828  eV     1   -->   ?

 **************************************************************************

 **************************************************************************

                    xk=(   0.44000,   0.44000,   0.44000  )

     Band symmetry, C_3v (3m)   point group:

     e(  1 -  1) =     -3.44988  eV     1   --> A_1  L_1       
     e(  2 -  2) =     -0.32075  eV     1   --> A_1  L_1       
     e(  3 -  4) =      5.27901  eV     2   --> E    L_3       
     e(  5 -  5) =      8.07547  eV     1   --> A_1  L_1       
     e(  6 -  7) =      9.81608  eV     2   --> E    L_3       
     e(  8 -  8) =     14.24172  eV     1   --> A_1  L_1       
     e(  9 - 10) =     16.21737  eV     2   --> E    L_3       
     e( 11 - 11) =     17.36985  eV     1   --> A_1  L_1       
     e( 12 - 12) =     18.89501  eV     1   -->   ?

 **************************************************************************

 **************************************************************************

                    xk=(   0.43000,   0.43000,   0.43000  )

     Band symmetry, C_3v (3m)   point group:

     e(  1 -  1) =     -3.51118  eV     1   --> A_1  L_1       
     e(  2 -  2) =     -0.22688  eV     1   --> A_1  L_1       
     e(  3 -  4) =      5.28841  eV     2   --> E    L_3       
     e(  5 -  5) =      8.08616  eV     1   --> A_1  L_1       
     e(  6 -  7) =      9.82676  eV     2   --> E    L_3       
     e(  8 -  8) =     14.25790  eV     1   --> A_1  L_1       
     e(  9 - 10) =     16.03568  eV     2   --> E    L_3       
     e( 11 - 11) =     17.21055  eV     1   --> A_1  L_1       
     e( 12 - 12) =     19.11554  eV     1   -->   ?

 **************************************************************************

 **************************************************************************

                    xk=(   0.42000,   0.42000,   0.42000  )

     Band symmetry, C_3v (3m)   point group:

     e(  1 -  1) =     -3.57750  eV     1   --> A_1  L_1       
     e(  2 -  2) =     -0.12302  eV     1   --> A_1  L_1       
     e(  3 -  4) =      5.29925  eV     2   --> E    L_3       
     e(  5 -  5) =      8.09848  eV     1   --> A_1  L_1       
     e(  6 -  7) =      9.83873  eV     2   --> E    L_3       
     e(  8 -  8) =     14.27589  eV     1   --> A_1  L_1       
     e(  9 - 10) =     15.85619  eV     2   --> E    L_3       
     e( 11 - 11) =     17.04615  eV     1   --> A_1  L_1       
     e( 12 - 12) =     19.33950  eV     1   -->   ?

 **************************************************************************

 **************************************************************************

                    xk=(   0.41000,   0.41000,   0.41000  )

     Band symmetry, C_3v (3m)   point group:

     e(  1 -  1) =     -3.64771  eV     1   --> A_1  L_1       
     e(  2 -  2) =     -0.01027  eV     1   --> A_1  L_1       
     e(  3 -  4) =      5.31178  eV     2   --> E    L_3       
     e(  5 -  5) =      8.11241  eV     1   --> A_1  L_1       
     e(  6 -  7) =      9.85205  eV     2   --> E    L_3       
     e(  8 -  8) =     14.29533  eV     1   --> A_1  L_1       
     e(  9 - 10) =     15.68102  eV     2   --> E    L_3       
     e( 11 - 11) =     16.87889  eV     1   --> A_1  L_1       
     e( 12 - 12) =     19.56957  eV     1   -->   ?

 **************************************************************************

 **************************************************************************

                    xk=(   0.40000,   0.40000,   0.40000  )

     Band symmetry, C_3v (3m)   point group:

     e(  1 -  1) =     -3.72093  eV     1   --> A_1  L_1       
     e(  2 -  2) =      0.11040  eV     1   --> A_1  L_1       
     e(  3 -  4) =      5.32550  eV     2   --> E    L_3       
     e(  5 -  5) =      8.12794  eV     1   --> A_1  L_1       
     e(  6 -  7) =      9.86612  eV     2   --> E    L_3       
     e(  8 -  8) =     14.31567  eV     1   --> A_1  L_1       
     e(  9 - 10) =     15.50823  eV     2   --> E    L_3       
     e( 11 - 11) =     16.71056  eV     1   --> A_1  L_1       
     e( 12 - 12) =     19.79730  eV     1   -->   ?

 **************************************************************************

 **************************************************************************

                    xk=(   0.39000,   0.39000,   0.39000  )

     Band symmetry, C_3v (3m)   point group:

     e(  1 -  1) =     -3.79630  eV     1   --> A_1  L_1       
     e(  2 -  2) =      0.23790  eV     1   --> A_1  L_1       
     e(  3 -  4) =      5.34061  eV     2   --> E    L_3       
     e(  5 -  5) =      8.14445  eV     1   --> A_1  L_1       
     e(  6 -  7) =      9.88092  eV     2   --> E    L_3       
     e(  8 -  8) =     14.33544  eV     1   --> A_1  L_1       
     e(  9 - 10) =     15.33885  eV     2   --> E    L_3       
     e( 11 - 11) =     16.54151  eV     1   --> A_1  L_1       
     e( 12 - 12) =     20.02337  eV     1   -->   ?

 **************************************************************************

 **************************************************************************

                    xk=(   0.38000,   0.38000,   0.38000  )

     Band symmetry, C_3v (3m)   point group:

     e(  1 -  1) =     -3.87310  eV     1   --> A_1  L_1       
     e(  2 -  2) =      0.37196  eV     1   --> A_1  L_1       
     e(  3 -  4) =      5.35719  eV     2   --> E    L_3       
     e(  5 -  5) =      8.16314  eV     1   --> A_1  L_1       
     e(  6 -  7) =      9.89624  eV     2   --> E    L_3       
     e(  8 -  8) =     14.35532  eV     1   --> A_1  L_1       
     e(  9 - 10) =     15.17502  eV     2   --> E    L_3       
     e( 11 - 11) =     16.37569  eV     1   --> A_1  L_1       
     e( 12 - 12) =     20.25035  eV     1   -->   ?

 **************************************************************************

 **************************************************************************

                    xk=(   0.37000,   0.37000,   0.37000  )

     Band symmetry, C_3v (3m)   point group:

     e(  1 -  1) =     -3.95073  eV     1   --> A_1  L_1       
     e(  2 -  2) =      0.51175  eV     1   --> A_1  L_1       
     e(  3 -  4) =      5.37520  eV     2   --> E    L_3       
     e(  5 -  5) =      8.18455  eV     1   --> A_1  L_1       
     e(  6 -  7) =      9.91181  eV     2   --> E    L_3       
     e(  8 -  8) =     14.37339  eV     1   --> A_1  L_1       
     e(  9 - 10) =     15.01693  eV     2   --> E    L_3       
     e( 11 - 11) =     16.21409  eV     1   --> A_1  L_1       
     e( 12 - 12) =     20.47494  eV     1   -->   ?

 **************************************************************************

 **************************************************************************

                    xk=(   0.36000,   0.36000,   0.36000  )

     Band symmetry, C_3v (3m)   point group:

     e(  1 -  1) =     -4.02872  eV     1   --> A_1  L_1       
     e(  2 -  2) =      0.65682  eV     1   --> A_1  L_1       
     e(  3 -  4) =      5.39460  eV     2   --> E    L_3       
     e(  5 -  5) =      8.20758  eV     1   --> A_1  L_1       
     e(  6 -  7) =      9.92727  eV     2   --> E    L_3       
     e(  8 -  8) =     14.38716  eV     1   --> A_1  L_1       
     e(  9 - 10) =     14.85864  eV     2   --> E    L_3       
     e( 11 - 11) =     16.05891  eV     1   --> A_1  L_1       
     e( 12 - 12) =     20.64474  eV     1   --> A_1  L_1       

 **************************************************************************

 **************************************************************************

                    xk=(   0.35000,   0.35000,   0.35000  )

     Band symmetry, C_3v (3m)   point group:

     e(  1 -  1) =     -4.10662  eV     1   --> A_1  L_1       
     e(  2 -  2) =      0.80651  eV     1   --> A_1  L_1       
     e(  3 -  4) =      5.41544  eV     2   --> E    L_3       
     e(  5 -  5) =      8.23082  eV     1   --> A_1  L_1       
     e(  6 -  7) =      9.94235  eV     2   --> E    L_3       
     e(  8 -  8) =     14.39462  eV     1   --> A_1  L_1       
     e(  9 - 10) =     14.71150  eV     2   --> E    L_3       
     e( 11 - 11) =     15.91161  eV     1   --> A_1  L_1       
     e( 12 - 12) =     20.51938  eV     1   --> A_1  L_1       

 **************************************************************************

 **************************************************************************

                    xk=(   0.34000,   0.34000,   0.34000  )

     Band symmetry, C_3v (3m)   point group:

     e(  1 -  1) =     -4.18408  eV     1   --> A_1  L_1       
     e(  2 -  2) =      0.96053  eV     1   --> A_1  L_1       
     e(  3 -  4) =      5.43767  eV     2   --> E    L_3       
     e(  5 -  5) =      8.25555  eV     1   --> A_1  L_1       
     e(  6 -  7) =      9.95665  eV     2   --> E    L_3       
     e(  8 -  8) =     14.39214  eV     1   --> A_1  L_1       
     e(  9 - 10) =     14.57075  eV     2   --> E    L_3       
     e( 11 - 11) =     15.77660  eV     1   --> A_1  L_1       
     e( 12 - 12) =     20.35913  eV     1   --> A_1  L_1       

 **************************************************************************

 **************************************************************************

                    xk=(   0.33000,   0.33000,   0.33000  )

     Band symmetry, C_3v (3m)   point group:

     e(  1 -  1) =     -4.26079  eV     1   --> A_1  L_1       
     e(  2 -  2) =      1.11855  eV     1   --> A_1  L_1       
     e(  3 -  4) =      5.46128  eV     2   --> E    L_3       
     e(  5 -  5) =      8.28173  eV     1   --> A_1  L_1       
     e(  6 -  7) =      9.96976  eV     2   --> E    L_3       
     e(  8 -  8) =     14.37534  eV     1   --> A_1  L_1       
     e(  9 - 10) =     14.43686  eV     2   --> E    L_3       
     e( 11 - 11) =     15.65825  eV     1   --> A_1  L_1       
     e( 12 - 12) =     20.17293  eV     1   --> A_1  L_1       

 **************************************************************************

 **************************************************************************

                    xk=(   0.32000,   0.32000,   0.32000  )

     Band symmetry, C_3v (3m)   point group:

     e(  1 -  1) =     -4.33650  eV     1   --> A_1  L_1       
     e(  2 -  2) =      1.28027  eV     1   --> A_1  L_1       
     e(  3 -  4) =      5.48626  eV     2   --> E    L_3       
     e(  5 -  5) =      8.30933  eV     1   --> A_1  L_1       
     e(  6 -  7) =      9.98125  eV     2   --> E    L_3       
     e(  8 -  9) =     14.31029  eV     2   --> E    L_3       
     e( 10 - 10) =     14.33949  eV     1   --> A_1  L_1       
     e( 11 - 11) =     15.56123  eV     1   --> A_1  L_1       
     e( 12 - 12) =     19.96865  eV     1   --> A_1  L_1       

 **************************************************************************

 **************************************************************************

                    xk=(   0.31000,   0.31000,   0.31000  )

     Band symmetry, C_3v (3m)   point group:

     e(  1 -  1) =     -4.41097  eV     1   --> A_1  L_1       
     e(  2 -  2) =      1.44543  eV     1   --> A_1  L_1       
     e(  3 -  4) =      5.51258  eV     2   --> E    L_3       
     e(  5 -  5) =      8.33842  eV     1   --> A_1  L_1       
     e(  6 -  7) =      9.99066  eV     2   --> E    L_3       
     e(  8 -  9) =     14.19153  eV     2   --> E    L_3       
     e( 10 - 10) =     14.28095  eV     1   --> A_1  L_1       
     e( 11 - 11) =     15.48938  eV     1   --> A_1  L_1       
     e( 12 - 12) =     19.75255  eV     1   --> A_1  L_1       

 **************************************************************************

 **************************************************************************

                    xk=(   0.30000,   0.30000,   0.30000  )

     Band symmetry, C_3v (3m)   point group:

     e(  1 -  1) =     -4.48404  eV     1   --> A_1  L_1       
     e(  2 -  2) =      1.61362  eV     1   --> A_1  L_1       
     e(  3 -  4) =      5.54014  eV     2   --> E    L_3       
     e(  5 -  5) =      8.36733  eV     1   --> A_1  L_1       
     e(  6 -  7) =      9.99727  eV     2   --> E    L_3       
     e(  8 -  9) =     14.08045  eV     2   --> E    L_3       
     e( 10 - 10) =     14.19752  eV     1   --> A_1  L_1       
     e( 11 - 11) =     15.44309  eV     1   --> A_1  L_1       
     e( 12 - 12) =     19.52790  eV     1   --> A_1  L_1       

 **************************************************************************

 **************************************************************************

                    xk=(   0.29000,   0.29000,   0.29000  )

     Band symmetry, C_3v (3m)   point group:

     e(  1 -  1) =     -4.55554  eV     1   --> A_1  L_1       
     e(  2 -  2) =      1.78490  eV     1   --> A_1  L_1       
     e(  3 -  4) =      5.56907  eV     2   --> E    L_3       
     e(  5 -  5) =      8.39889  eV     1   --> A_1  L_1       
     e(  6 -  7) =     10.00108  eV     2   --> E    L_3       
     e(  8 -  9) =     13.97875  eV     2   --> E    L_3       
     e( 10 - 10) =     14.09143  eV     1   --> A_1  L_1       
     e( 11 - 11) =     15.42200  eV     1   --> A_1  L_1       
     e( 12 - 12) =     19.30107  eV     1   --> A_1  L_1       

 **************************************************************************

 **************************************************************************

                    xk=(   0.28000,   0.28000,   0.28000  )

     Band symmetry, C_3v (3m)   point group:

     e(  1 -  1) =     -4.62533  eV     1   --> A_1  L_1       
     e(  2 -  2) =      1.95894  eV     1   --> A_1  L_1       
     e(  3 -  4) =      5.59926  eV     2   --> E    L_3       
     e(  5 -  5) =      8.43165  eV     1   --> A_1  L_1       
     e(  6 -  7) =     10.00135  eV     2   --> E    L_3       
     e(  8 -  9) =     13.88633  eV     2   --> E    L_3       
     e( 10 - 10) =     13.96622  eV     1   --> A_1  L_1       
     e( 11 - 11) =     15.42127  eV     1   --> A_1  L_1       
     e( 12 - 12) =     19.07358  eV     1   --> A_1  L_1       

 **************************************************************************

 **************************************************************************

                    xk=(   0.27000,   0.27000,   0.27000  )

     Band symmetry, C_3v (3m)   point group:

     e(  1 -  1) =     -4.69329  eV     1   --> A_1  L_1       
     e(  2 -  2) =      2.13555  eV     1   --> A_1  L_1       
     e(  3 -  4) =      5.63067  eV     2   --> E    L_3       
     e(  5 -  5) =      8.46556  eV     1   --> A_1  L_1       
     e(  6 -  7) =      9.99766  eV     2   --> E    L_3       
     e(  8 -  9) =     13.80363  eV     2   --> E    L_3       
     e( 10 - 10) =     13.82615  eV     1   --> A_1  L_1       
     e( 11 - 11) =     15.43609  eV     1   --> A_1  L_1       
     e( 12 - 12) =     18.84773  eV     1   --> A_1  L_1       

 **************************************************************************

 **************************************************************************

                    xk=(   0.26000,   0.26000,   0.26000  )

     Band symmetry, C_3v (3m)   point group:

     e(  1 -  1) =     -4.75931  eV     1   --> A_1  L_1       
     e(  2 -  2) =      2.31468  eV     1   --> A_1  L_1       
     e(  3 -  4) =      5.66343  eV     2   --> E    L_3       
     e(  5 -  5) =      8.50070  eV     1   --> A_1  L_1       
     e(  6 -  7) =      9.98974  eV     2   --> E    L_3       
     e(  8 -  8) =     13.67508  eV     1   --> A_1  L_1       
     e(  9 - 10) =     13.73173  eV     2   --> E    L_3       
     e( 11 - 11) =     15.46269  eV     1   --> A_1  L_1       
     e( 12 - 12) =     18.62599  eV     1   --> A_1  L_1       

 **************************************************************************

 **************************************************************************

                    xk=(   0.25000,   0.25000,   0.25000  )

     Band symmetry, C_3v (3m)   point group:

     e(  1 -  1) =     -4.82331  eV     1   --> A_1  L_1       
     e(  2 -  2) =      2.49565  eV     1   --> A_1  L_1       
     e(  3 -  4) =      5.69715  eV     2   --> E    L_3       
     e(  5 -  5) =      8.53648  eV     1   --> A_1  L_1       
     e(  6 -  7) =      9.97695  eV     2   --> E    L_3       
     e(  8 -  8) =     13.51582  eV     1   --> A_1  L_1       
     e(  9 - 10) =     13.66917  eV     2   --> E    L_3       
     e( 11 - 11) =     15.49503  eV     1   --> A_1  L_1       
     e( 12 - 12) =     18.40934  eV     1   --> A_1  L_1       

 **************************************************************************

 **************************************************************************

                    xk=(   0.24000,   0.24000,   0.24000  )

     Band symmetry, C_3v (3m)   point group:

     e(  1 -  1) =     -4.88520  eV     1   --> A_1  L_1       
     e(  2 -  2) =      2.67885  eV     1   --> A_1  L_1       
     e(  3 -  4) =      5.73195  eV     2   --> E    L_3       
     e(  5 -  5) =      8.57326  eV     1   --> A_1  L_1       
     e(  6 -  7) =      9.95922  eV     2   --> E    L_3       
     e(  8 -  8) =     13.35060  eV     1   --> A_1  L_1       
     e(  9 - 10) =     13.61758  eV     2   --> E    L_3       
     e( 11 - 11) =     15.53219  eV     1   --> A_1  L_1       
     e( 12 - 12) =     18.20034  eV     1   --> A_1  L_1       

 **************************************************************************

 **************************************************************************

                    xk=(   0.23000,   0.23000,   0.23000  )

     Band symmetry, C_3v (3m)   point group:

     e(  1 -  1) =     -4.94492  eV     1   --> A_1  L_1       
     e(  2 -  2) =      2.86390  eV     1   --> A_1  L_1       
     e(  3 -  4) =      5.76774  eV     2   --> E    L_3       
     e(  5 -  5) =      8.61079  eV     1   --> A_1  L_1       
     e(  6 -  7) =      9.93641  eV     2   --> E    L_3       
     e(  8 -  8) =     13.18096  eV     1   --> A_1  L_1       
     e(  9 - 10) =     13.57673  eV     2   --> E    L_3       
     e( 11 - 11) =     15.57028  eV     1   --> A_1  L_1       
     e( 12 - 12) =     18.00113  eV     1   --> A_1  L_1       

 **************************************************************************

 **************************************************************************

                    xk=(   0.22000,   0.22000,   0.22000  )

     Band symmetry, C_3v (3m)   point group:

     e(  1 -  1) =     -5.00241  eV     1   --> A_1  L_1       
     e(  2 -  2) =      3.05058  eV     1   --> A_1  L_1       
     e(  3 -  4) =      5.80446  eV     2   --> E    L_3       
     e(  5 -  5) =      8.64893  eV     1   --> A_1  L_1       
     e(  6 -  7) =      9.90853  eV     2   --> E    L_3       
     e(  8 -  8) =     13.00801  eV     1   --> A_1  L_1       
     e(  9 - 10) =     13.54656  eV     2   --> E    L_3       
     e( 11 - 11) =     15.60618  eV     1   --> A_1  L_1       
     e( 12 - 12) =     17.81425  eV     1   --> A_1  L_1       

 **************************************************************************

 **************************************************************************

                    xk=(   0.21000,   0.21000,   0.21000  )

     Band symmetry, C_3v (3m)   point group:

     e(  1 -  1) =     -5.05761  eV     1   --> A_1  L_1       
     e(  2 -  2) =      3.23871  eV     1   --> A_1  L_1       
     e(  3 -  4) =      5.84202  eV     2   --> E    L_3       
     e(  5 -  5) =      8.68752  eV     1   --> A_1  L_1       
     e(  6 -  7) =      9.87570  eV     2   --> E    L_3       
     e(  8 -  8) =     12.83260  eV     1   --> A_1  L_1       
     e(  9 - 10) =     13.52691  eV     2   --> E    L_3       
     e( 11 - 11) =     15.63649  eV     1   --> A_1  L_1       
     e( 12 - 12) =     17.64279  eV     1   --> A_1  L_1       

 **************************************************************************

 **************************************************************************

                    xk=(   0.20000,   0.20000,   0.20000  )

     Band symmetry, C_3v (3m)   point group:

     e(  1 -  1) =     -5.11048  eV     1   --> A_1  L_1       
     e(  2 -  2) =      3.42807  eV     1   --> A_1  L_1       
     e(  3 -  4) =      5.88032  eV     2   --> E    L_3       
     e(  5 -  5) =      8.72638  eV     1   --> A_1  L_1       
     e(  6 -  7) =      9.83818  eV     2   --> E    L_3       
     e(  8 -  8) =     12.65536  eV     1   --> A_1  L_1       
     e(  9 - 10) =     13.51747  eV     2   --> E    L_3       
     e( 11 - 11) =     15.65736  eV     1   --> A_1  L_1       
     e( 12 - 12) =     17.49040  eV     1   --> A_1  L_1       

 **************************************************************************

 **************************************************************************

                    xk=(   0.19000,   0.19000,   0.19000  )

     Band symmetry, C_3v (3m)   point group:

     e(  1 -  1) =     -5.16097  eV     1   --> A_1  L_1       
     e(  2 -  2) =      3.61841  eV     1   --> A_1  L_1       
     e(  3 -  4) =      5.91924  eV     2   --> E    L_3       
     e(  5 -  5) =      8.76533  eV     1   --> A_1  L_1       
     e(  6 -  7) =      9.79633  eV     2   --> E    L_3       
     e(  8 -  8) =     12.47683  eV     1   --> A_1  L_1       
     e(  9 - 10) =     13.51778  eV     2   --> E    L_3       
     e( 11 - 11) =     15.66455  eV     1   --> A_1  L_1       
     e( 12 - 12) =     17.36121  eV     1   --> A_1  L_1       

 **************************************************************************

 **************************************************************************

                    xk=(   0.18000,   0.18000,   0.18000  )

     Band symmetry, C_3v (3m)   point group:

     e(  1 -  1) =     -5.20902  eV     1   --> A_1  L_1       
     e(  2 -  2) =      3.80955  eV     1   --> A_1  L_1       
     e(  3 -  4) =      5.95868  eV     2   --> E    L_3       
     e(  5 -  5) =      8.80432  eV     1   --> A_1  L_1       
     e(  6 -  7) =      9.75280  eV     2   --> E    L_3       
     e(  8 -  8) =     12.29810  eV     1   --> A_1  L_1       
     e(  9 - 10) =     13.53312  eV     2   --> E    L_3       
     e( 11 - 11) =     15.65415  eV     1   --> A_1  L_1       
     e( 12 - 12) =     17.25920  eV     1   --> A_1  L_1       

 **************************************************************************

 **************************************************************************

                    xk=(   0.17000,   0.17000,   0.17000  )

     Band symmetry, C_3v (3m)   point group:

     e(  1 -  1) =     -5.25465  eV     1   --> A_1  L_1       
     e(  2 -  2) =      4.00105  eV     1   --> A_1  L_1       
     e(  3 -  4) =      5.99843  eV     2   --> E    L_3       
     e(  5 -  5) =      8.84269  eV     1   --> A_1  L_1       
     e(  6 -  7) =      9.70375  eV     2   --> E    L_3       
     e(  8 -  8) =     12.11833  eV     1   --> A_1  L_1       
     e(  9 - 10) =     13.55133  eV     2   --> E    L_3       
     e( 11 - 11) =     15.62308  eV     1   --> A_1  L_1       
     e( 12 - 12) =     17.18715  eV     1   --> A_1  L_1       

 **************************************************************************

 **************************************************************************

                    xk=(   0.16000,   0.16000,   0.16000  )

     Band symmetry, C_3v (3m)   point group:

     e(  1 -  1) =     -5.29780  eV     1   --> A_1  L_1       
     e(  2 -  2) =      4.19265  eV     1   --> A_1  L_1       
     e(  3 -  4) =      6.03836  eV     2   --> E    L_3       
     e(  5 -  5) =      8.88033  eV     1   --> A_1  L_1       
     e(  6 -  7) =      9.65205  eV     2   --> E    L_3       
     e(  8 -  8) =     11.93865  eV     1   --> A_1  L_1       
     e(  9 - 10) =     13.57732  eV     2   --> E    L_3       
     e( 11 - 11) =     15.57094  eV     1   --> A_1  L_1       
     e( 12 - 12) =     17.14555  eV     1   --> A_1  L_1       

 **************************************************************************

 **************************************************************************

                    xk=(   0.15000,   0.15000,   0.15000  )

     Band symmetry, C_3v (3m)   point group:

     e(  1 -  1) =     -5.33844  eV     1   --> A_1  L_1       
     e(  2 -  2) =      4.38396  eV     1   --> A_1  L_1       
     e(  3 -  4) =      6.07827  eV     2   --> E    L_3       
     e(  5 -  5) =      8.91689  eV     1   --> A_1  L_1       
     e(  6 -  7) =      9.59837  eV     2   --> E    L_3       
     e(  8 -  8) =     11.75959  eV     1   --> A_1  L_1       
     e(  9 - 10) =     13.61027  eV     2   --> E    L_3       
     e( 11 - 11) =     15.49993  eV     1   --> A_1  L_1       
     e( 12 - 12) =     17.13211  eV     1   --> A_1  L_1       

 **************************************************************************

 **************************************************************************

                    xk=(   0.14000,   0.14000,   0.14000  )

     Band symmetry, C_3v (3m)   point group:

     e(  1 -  1) =     -5.37656  eV     1   --> A_1  L_1       
     e(  2 -  2) =      4.57452  eV     1   --> A_1  L_1       
     e(  3 -  4) =      6.11794  eV     2   --> E    L_3       
     e(  5 -  5) =      8.95195  eV     1   --> A_1  L_1       
     e(  6 -  7) =      9.54341  eV     2   --> E    L_3       
     e(  8 -  8) =     11.58177  eV     1   --> A_1  L_1       
     e(  9 - 10) =     13.64931  eV     2   --> E    L_3       
     e( 11 - 11) =     15.41428  eV     1   --> A_1  L_1       
     e( 12 - 12) =     17.14252  eV     1   --> A_1  L_1       

 **************************************************************************

 **************************************************************************

                    xk=(   0.13000,   0.13000,   0.13000  )

     Band symmetry, C_3v (3m)   point group:

     e(  1 -  1) =     -5.41212  eV     1   --> A_1  L_1       
     e(  2 -  2) =      4.76379  eV     1   --> A_1  L_1       
     e(  3 -  4) =      6.15715  eV     2   --> E    L_3       
     e(  5 -  5) =      8.98504  eV     1   --> A_1  L_1       
     e(  6 -  7) =      9.48790  eV     2   --> E    L_3       
     e(  8 -  8) =     11.40593  eV     1   --> A_1  L_1       
     e(  9 - 10) =     13.69350  eV     2   --> E    L_3       
     e( 11 - 11) =     15.31894  eV     1   --> A_1  L_1       
     e( 12 - 12) =     17.17164  eV     1   --> A_1  L_1       

 **************************************************************************

 **************************************************************************

                    xk=(   0.12000,   0.12000,   0.12000  )

     Band symmetry, C_3v (3m)   point group:

     e(  1 -  1) =     -5.44512  eV     1   --> A_1  L_1       
     e(  2 -  2) =      4.95114  eV     1   --> A_1  L_1       
     e(  3 -  4) =      6.19562  eV     2   --> E    L_3       
     e(  5 -  5) =      9.01558  eV     1   --> A_1  L_1       
     e(  6 -  7) =      9.43254  eV     2   --> E    L_3       
     e(  8 -  8) =     11.23298  eV     1   --> A_1  L_1       
     e(  9 - 10) =     13.74185  eV     2   --> E    L_3       
     e( 11 - 11) =     15.21859  eV     1   --> A_1  L_1       
     e( 12 - 12) =     17.21456  eV     1   --> A_1  L_1       

 **************************************************************************

 **************************************************************************

                    xk=(   0.11000,   0.11000,   0.11000  )

     Band symmetry, C_3v (3m)   point group:

     e(  1 -  1) =     -5.47554  eV     1   --> A_1  L_1       
     e(  2 -  2) =      5.13576  eV     1   --> A_1  L_1       
     e(  3 -  4) =      6.23306  eV     2   --> E    L_3       
     e(  5 -  5) =      9.04292  eV     1   --> A_1  L_1       
     e(  6 -  7) =      9.37806  eV     2   --> E    L_3       
     e(  8 -  8) =     11.06405  eV     1   --> A_1  L_1       
     e(  9 - 10) =     13.79333  eV     2   --> E    L_3       
     e( 11 - 11) =     15.11712  eV     1   --> A_1  L_1       
     e( 12 - 12) =     17.26708  eV     1   --> A_1  L_1       

 **************************************************************************

 **************************************************************************

                    xk=(   0.10000,   0.10000,   0.10000  )

     Band symmetry, C_3v (3m)   point group:

     e(  1 -  1) =     -5.50336  eV     1   --> A_1  L_1       
     e(  2 -  2) =      5.31671  eV     1   --> A_1  L_1       
     e(  3 -  4) =      6.26916  eV     2   --> E    L_3       
     e(  5 -  5) =      9.06652  eV     1   --> A_1  L_1       
     e(  6 -  7) =      9.32532  eV     2   --> E    L_3       
     e(  8 -  8) =     10.90056  eV     1   --> A_1  L_1       
     e(  9 - 10) =     13.85364  eV     2   --> E    L_3       
     e( 11 - 11) =     15.01769  eV     1   --> A_1  L_1       
     e( 12 - 12) =     17.32569  eV     1   --> A_1  L_1       

 **************************************************************************

 **************************************************************************

                    xk=(   0.09000,   0.09000,   0.09000  )

     Band symmetry, C_3v (3m)   point group:

     e(  1 -  1) =     -5.52856  eV     1   --> A_1  L_1       
     e(  2 -  2) =      5.49279  eV     1   --> A_1  L_1       
     e(  3 -  4) =      6.30352  eV     2   --> E    L_3       
     e(  5 -  5) =      9.08504  eV     1   --> A_1  L_1       
     e(  6 -  7) =      9.27475  eV     2   --> E    L_3       
     e(  8 -  8) =     10.74422  eV     1   --> A_1  L_1       
     e(  9 - 10) =     13.90812  eV     2   --> E    L_3       
     e( 11 - 11) =     14.92265  eV     1   --> A_1  L_1       
     e( 12 - 12) =     17.38746  eV     1   --> A_1  L_1       

 **************************************************************************

 **************************************************************************

                    xk=(   0.08000,   0.08000,   0.08000  )

     Band symmetry, C_3v (3m)   point group:

     e(  1 -  1) =     -5.55112  eV     1   --> A_1  L_1       
     e(  2 -  2) =      5.66259  eV     1   --> A_1  L_1       
     e(  3 -  4) =      6.33620  eV     2   --> E    L_3       
     e(  5 -  5) =      9.09779  eV     1   --> A_1  L_1       
     e(  6 -  7) =      9.22791  eV     2   --> E    L_3       
     e(  8 -  8) =     10.59720  eV     1   --> A_1  L_1       
     e(  9 - 10) =     13.96398  eV     2   --> E    L_3       
     e( 11 - 11) =     14.83392  eV     1   --> A_1  L_1       
     e( 12 - 12) =     17.45004  eV     1   --> A_1  L_1       

 **************************************************************************

 **************************************************************************

                    xk=(   0.07000,   0.07000,   0.07000  )

     Band symmetry, C_3v (3m)   point group:

     e(  1 -  1) =     -5.57105  eV     1   --> A_1  L_1       
     e(  2 -  2) =      5.82412  eV     1   --> A_1  L_1       
     e(  3 -  4) =      6.36601  eV     2   --> E    L_3       
     e(  5 -  5) =      9.10555  eV     1   --> A_1  L_1       
     e(  6 -  7) =      9.18398  eV     2   --> E    L_3       
     e(  8 -  8) =     10.46184  eV     1   --> A_1  L_1       
     e(  9 - 10) =     14.01678  eV     2   --> E    L_3       
     e( 11 - 11) =     14.75284  eV     1   --> A_1  L_1       
     e( 12 - 12) =     17.51111  eV     1   --> A_1  L_1       

 **************************************************************************

 **************************************************************************

                    xk=(   0.06000,   0.06000,   0.06000  )

     Band symmetry, C_3v (3m)   point group:

     e(  1 -  1) =     -5.58835  eV     1   --> A_1  L_1       
     e(  2 -  2) =      5.97514  eV     1   --> A_1  L_1       
     e(  3 -  4) =      6.39294  eV     2   --> E    L_3       
     e(  5 -  5) =      9.10421  eV     1   --> A_1  L_1       
     e(  6 -  7) =      9.14435  eV     2   --> E    L_3       
     e(  8 -  8) =     10.34076  eV     1   --> A_1  L_1       
     e(  9 - 10) =     14.06622  eV     2   --> E    L_3       
     e( 11 - 11) =     14.68059  eV     1   --> A_1  L_1       
     e( 12 - 12) =     17.56873  eV     1   --> A_1  L_1       

 **************************************************************************

 **************************************************************************

                    xk=(   0.05000,   0.05000,   0.05000  )

     Band symmetry, C_3v (3m)   point group:

     e(  1 -  1) =     -5.60300  eV     1   --> A_1  L_1       
     e(  2 -  2) =      6.11283  eV     1   --> A_1  L_1       
     e(  3 -  4) =      6.41659  eV     2   --> E    L_3       
     e(  5 -  5) =      9.09550  eV     1   --> A_1  L_1       
     e(  6 -  7) =      9.10962  eV     2   --> E    L_3       
     e(  8 -  8) =     10.23657  eV     1   --> A_1  L_1       
     e(  9 - 10) =     14.11126  eV     2   --> E    L_3       
     e( 11 - 11) =     14.61807  eV     1   --> A_1  L_1       
     e( 12 - 12) =     17.62115  eV     1   --> A_1  L_1       

 **************************************************************************

 **************************************************************************

                    xk=(   0.04000,   0.04000,   0.04000  )

     Band symmetry, C_3v (3m)   point group:

     e(  1 -  1) =     -5.61499  eV     1   --> A_1  L_1       
     e(  2 -  2) =      6.23416  eV     1   --> A_1  L_1       
     e(  3 -  4) =      6.43660  eV     2   --> E    L_3       
     e(  5 -  6) =      9.08036  eV     2   --> E    L_3       
     e(  7 -  7) =      9.08131  eV     1   --> A_1  L_1       
     e(  8 -  8) =     10.15125  eV     1   --> A_1  L_1       
     e(  9 - 10) =     14.15125  eV     2   --> E    L_3       
     e( 11 - 11) =     14.56601  eV     1   --> A_1  L_1       
     e( 12 - 12) =     17.66746  eV     1   --> A_1  L_1       

 **************************************************************************

 **************************************************************************

                    xk=(   0.03000,   0.03000,   0.03000  )

     Band symmetry, C_3v (3m)   point group:

     e(  1 -  1) =     -5.62433  eV     1   --> A_1  L_1       
     e(  2 -  2) =      6.33456  eV     1   --> A_1  L_1       
     e(  3 -  4) =      6.45255  eV     2   --> E    L_3       
     e(  5 -  6) =      9.05705  eV     2   --> E    L_3       
     e(  7 -  7) =      9.06272  eV     1   --> A_1  L_1       
     e(  8 -  8) =     10.08578  eV     1   --> A_1  L_1       
     e(  9 - 10) =     14.18343  eV     2   --> E    L_3       
     e( 11 - 11) =     14.52495  eV     1   --> A_1  L_1       
     e( 12 - 12) =     17.70465  eV     1   --> A_1  L_1       

 **************************************************************************

 **************************************************************************

                    xk=(   0.02000,   0.02000,   0.02000  )

     Band symmetry, C_3v (3m)   point group:

     e(  1 -  1) =     -5.63100  eV     1   --> A_1  L_1       
     e(  2 -  2) =      6.41027  eV     1   --> A_1  L_1       
     e(  3 -  4) =      6.46418  eV     2   --> E    L_3       
     e(  5 -  6) =      9.04009  eV     2   --> E    L_3       
     e(  7 -  7) =      9.04453  eV     1   --> A_1  L_1       
     e(  8 -  8) =     10.04007  eV     1   --> A_1  L_1       
     e(  9 - 10) =     14.20736  eV     2   --> E    L_3       
     e( 11 - 11) =     14.49533  eV     1   --> A_1  L_1       
     e( 12 - 12) =     17.73220  eV     1   --> A_1  L_1       

 **************************************************************************

 **************************************************************************

                    xk=(   0.01000,   0.01000,   0.01000  )

     Band symmetry, C_3v (3m)   point group:

     e(  1 -  1) =     -5.63500  eV     1   --> A_1  L_1       
     e(  2 -  2) =      6.45754  eV     1   --> A_1  L_1       
     e(  5 -  6) =      9.02979  eV     2   --> E    L_3       
     e(  7 -  7) =      9.03123  eV     1   --> A_1  L_1       
     e(  8 -  8) =     10.01326  eV     1   --> A_1  L_1       
     e(  9 - 10) =     14.22211  eV     2   --> E    L_3       
     e( 11 - 11) =     14.47743  eV     1   --> A_1  L_1       
     e( 12 - 12) =     17.74915  eV     1   --> A_1  L_1       

 **************************************************************************

 **************************************************************************

                    xk=(   0.00000,   0.00000,   0.00000  )

     point group O_h (m-3m) 
     there are 10 classes
     the character table:

       E     8C3   3C2   6C4   6C2'  i     8S6   3s_h  6S4   6s_d 
A_1g   1.00  1.00  1.00  1.00  1.00  1.00  1.00  1.00  1.00  1.00
A_2g   1.00  1.00  1.00 -1.00 -1.00  1.00  1.00  1.00 -1.00 -1.00
E_g    2.00 -1.00  2.00  0.00  0.00  2.00 -1.00  2.00  0.00  0.00
T_1g   3.00  0.00 -1.00  1.00 -1.00  3.00  0.00 -1.00  1.00 -1.00
T_2g   3.00  0.00 -1.00 -1.00  1.00  3.00  0.00 -1.00 -1.00  1.00
A_1u   1.00  1.00  1.00  1.00  1.00 -1.00 -1.00 -1.00 -1.00 -1.00
A_2u   1.00  1.00  1.00 -1.00 -1.00 -1.00 -1.00 -1.00  1.00  1.00
E_u    2.00 -1.00  2.00  0.00  0.00 -2.00  1.00 -2.00  0.00  0.00
T_1u   3.00  0.00 -1.00  1.00 -1.00 -3.00  0.00  1.00 -1.00  1.00
T_2u   3.00  0.00 -1.00 -1.00  1.00 -3.00  0.00  1.00  1.00 -1.00

     the symmetry operations in each class and the name of the first element:

     E        1
                                                                 
     8C3     17   19   20   18   24   21   22   23
                                                                 
     3C2      2    4    3
                                                                 
     6C4      7    8   15   16   12   11
                                                                 
     6C2'     5    6   14   13   10    9
                                                                 
     i       25
                                                                 
     8S6     41   43   44   42   48   45   46   47
                                                                 
     3s_h    26   28   27
                                                                 
     6S4     31   32   39   40   36   35
                                                                 
     6s_d    29   30   38   37   34   33
                                                                 

     Band symmetry, O_h (m-3m)  point group:

     e(  1 -  1) =     -5.63634  eV     1   --> A_1g G_1   G_1+
     e(  2 -  4) =      6.47362  eV     3   --> T_2g G_25' G_5+
     e(  5 -  7) =      9.02634  eV     3   --> T_1u G_15  G_4-
     e(  8 -  8) =     10.00444  eV     1   --> A_2u G_2'  G_2-
     e(  9 - 10) =     14.22709  eV     2   --> E_u  G_12' G_3-
     e( 11 - 11) =     14.47145  eV     1   --> A_1g G_1   G_1+
     e( 12 - 12) =     17.75487  eV     1   -->   ?

 **************************************************************************

 **************************************************************************

                    xk=(   0.02000,   0.00000,   0.00000  )

     point group C_4v (4mm) 
     there are  5 classes
     the character table:

       E     2C4   C2    2s_v  2s_d 
A_1    1.00  1.00  1.00  1.00  1.00
A_2    1.00  1.00  1.00 -1.00 -1.00
B_1    1.00 -1.00  1.00  1.00 -1.00
B_2    1.00 -1.00  1.00 -1.00  1.00
E      2.00  0.00 -2.00  0.00  0.00

     the symmetry operations in each class and the name of the first element:

     E        1
                                                                 
     2C4      3    4
                                                                 
     C2       2
                                                                 
     2s_v     5    6
                                                                 
     2s_d     7    8
                                                                 

     Band symmetry, C_4v (4mm)  point group:

     e(  1 -  1) =     -5.63456  eV     1   --> A_1  G_1 D_1   
     e(  2 -  2) =      6.46174  eV     1   --> B_2  G_4 D_2'  
     e(  3 -  4) =      6.46566  eV     2   --> E    G_5 D_5   
     e(  5 -  5) =      9.02186  eV     1   --> A_1  G_1 D_1   
     e(  6 -  7) =      9.03650  eV     2   --> E    G_5 D_5   
     e(  8 -  8) =     10.01610  eV     1   --> B_2  G_4 D_2'  
     e(  9 -  9) =     14.21186  eV     1   --> B_2  G_4 D_2'  
     e( 10 - 10) =     14.22906  eV     1   --> A_2  G_2 D_1'  
     e( 11 - 11) =     14.47943  eV     1   --> A_1  G_1 D_1   
     e( 12 - 12) =     17.75797  eV     1   -->   ?

 **************************************************************************

 **************************************************************************

                    xk=(   0.04000,   0.00000,   0.00000  )

     Band symmetry, C_4v (4mm)  point group:

     e(  1 -  1) =     -5.62922  eV     1   --> A_1  G_1 D_1   
     e(  2 -  2) =      6.42659  eV     1   --> B_2  G_4 D_2'  
     e(  3 -  4) =      6.44217  eV     2   --> E    G_5 D_5   
     e(  5 -  5) =      9.00852  eV     1   --> A_1  G_1 D_1   
     e(  6 -  7) =      9.06658  eV     2   --> E    G_5 D_5   
     e(  8 -  8) =     10.05048  eV     1   --> B_2  G_4 D_2'  
     e(  9 -  9) =     14.16709  eV     1   --> B_2  G_4 D_2'  
     e( 10 - 10) =     14.23496  eV     1   --> A_2  G_2 D_1'  
     e( 11 - 11) =     14.50327  eV     1   --> A_1  G_1 D_1   
     e( 12 - 12) =     17.76726  eV     1   -->   ?

 **************************************************************************

 **************************************************************************

                    xk=(   0.06000,   0.00000,   0.00000  )

     Band symmetry, C_4v (4mm)  point group:

     e(  1 -  1) =     -5.62032  eV     1   --> A_1  G_1 D_1   
     e(  2 -  2) =      6.36956  eV     1   --> B_2  G_4 D_2'  
     e(  3 -  4) =      6.40424  eV     2   --> E    G_5 D_5   
     e(  5 -  5) =      8.98658  eV     1   --> A_1  G_1 D_1   
     e(  6 -  7) =      9.11549  eV     2   --> E    G_5 D_5   
     e(  8 -  8) =     10.10594  eV     1   --> B_2  G_4 D_2'  
     e(  9 -  9) =     14.09537  eV     1   --> B_2  G_4 D_2'  
     e( 10 - 10) =     14.24479  eV     1   --> A_2  G_2 D_1'  
     e( 11 - 11) =     14.54270  eV     1   --> A_1  G_1 D_1   
     e( 12 - 12) =     17.78275  eV     1   -->   ?

 **************************************************************************

 **************************************************************************

                    xk=(   0.08000,   0.00000,   0.00000  )

     Band symmetry, C_4v (4mm)  point group:

     e(  1 -  1) =     -5.60787  eV     1   --> A_1  G_1 D_1   
     e(  2 -  2) =      6.29269  eV     1   --> B_2  G_4 D_2'  
     e(  3 -  4) =      6.35346  eV     2   --> E    G_5 D_5   
     e(  5 -  5) =      8.95646  eV     1   --> A_1  G_1 D_1   
     e(  6 -  7) =      9.18164  eV     2   --> E    G_5 D_5   
     e(  8 -  8) =     10.18000  eV     1   --> B_2  G_4 D_2'  
     e(  9 -  9) =     14.00051  eV     1   --> B_2  G_4 D_2'  
     e( 10 - 10) =     14.25855  eV     1   --> A_2  G_2 D_1'  
     e( 11 - 11) =     14.59730  eV     1   --> A_1  G_1 D_1   
     e( 12 - 12) =     17.80442  eV     1   -->   ?

 **************************************************************************

 **************************************************************************

                    xk=(   0.10000,   0.00000,   0.00000  )

     Band symmetry, C_4v (4mm)  point group:

     e(  1 -  1) =     -5.59187  eV     1   --> A_1  G_1 D_1   
     e(  2 -  2) =      6.19830  eV     1   --> B_2  G_4 D_2'  
     e(  3 -  4) =      6.29144  eV     2   --> E    G_5 D_5   
     e(  5 -  5) =      8.91854  eV     1   --> A_1  G_1 D_1   
     e(  6 -  7) =      9.26263  eV     2   --> E    G_5 D_5   
     e(  8 -  8) =     10.26949  eV     1   --> B_2  G_4 D_2'  
     e(  9 -  9) =     13.88486  eV     1   --> B_2  G_4 D_2'  
     e( 10 - 10) =     14.27624  eV     1   --> A_2  G_2 D_1'  
     e( 11 - 11) =     14.66646  eV     1   --> A_1  G_1 D_1   
     e( 12 - 12) =     17.83179  eV     1   -->   ?

 **************************************************************************

 **************************************************************************

                    xk=(   0.12000,   0.00000,   0.00000  )

     Band symmetry, C_4v (4mm)  point group:

     e(  1 -  1) =     -5.57232  eV     1   --> A_1  G_1 D_1   
     e(  2 -  2) =      6.08893  eV     1   --> B_2  G_4 D_2'  
     e(  3 -  4) =      6.22059  eV     2   --> E    G_5 D_5   
     e(  5 -  5) =      8.87377  eV     1   --> A_1  G_1 D_1   
     e(  6 -  7) =      9.35752  eV     2   --> E    G_5 D_5   
     e(  8 -  8) =     10.37100  eV     1   --> B_2  G_4 D_2'  
     e(  9 -  9) =     13.75785  eV     1   --> B_2  G_4 D_2'  
     e( 10 - 10) =     14.29786  eV     1   --> A_2  G_2 D_1'  
     e( 11 - 11) =     14.74959  eV     1   --> A_1  G_1 D_1   
     e( 12 - 12) =     17.86579  eV     1   -->   ?

 **************************************************************************

 **************************************************************************

                    xk=(   0.14000,   0.00000,   0.00000  )

     Band symmetry, C_4v (4mm)  point group:

     e(  1 -  1) =     -5.54922  eV     1   --> A_1  G_1 D_1   
     e(  2 -  2) =      5.96687  eV     1   --> B_2  G_4 D_2'  
     e(  3 -  4) =      6.14245  eV     2   --> E    G_5 D_5   
     e(  5 -  5) =      8.82274  eV     1   --> A_1  G_1 D_1   
     e(  6 -  7) =      9.46386  eV     2   --> E    G_5 D_5   
     e(  8 -  8) =     10.48038  eV     1   --> B_2  G_4 D_2'  
     e(  9 -  9) =     13.61384  eV     1   --> B_2  G_4 D_2'  
     e( 10 - 10) =     14.32339  eV     1   --> A_2  G_2 D_1'  
     e( 11 - 11) =     14.84590  eV     1   --> A_1  G_1 D_1   
     e( 12 - 12) =     17.90594  eV     1   -->   ?

 **************************************************************************

 **************************************************************************

                    xk=(   0.16000,   0.00000,   0.00000  )

     Band symmetry, C_4v (4mm)  point group:

     e(  1 -  1) =     -5.52257  eV     1   --> A_1  G_1 D_1   
     e(  2 -  2) =      5.83422  eV     1   --> B_2  G_4 D_2'  
     e(  3 -  4) =      6.05861  eV     2   --> E    G_5 D_5   
     e(  5 -  5) =      8.76617  eV     1   --> A_1  G_1 D_1   
     e(  6 -  7) =      9.58037  eV     2   --> E    G_5 D_5   
     e(  8 -  8) =     10.59373  eV     1   --> B_2  G_4 D_2'  
     e(  9 -  9) =     13.47570  eV     1   --> B_2  G_4 D_2'  
     e( 10 - 10) =     14.35287  eV     1   --> A_2  G_2 D_1'  
     e( 11 - 11) =     14.95460  eV     1   --> A_1  G_1 D_1   
     e( 12 - 12) =     17.95223  eV     1   -->   ?

 **************************************************************************

 **************************************************************************

                    xk=(   0.18000,   0.00000,   0.00000  )

     Band symmetry, C_4v (4mm)  point group:

     e(  1 -  1) =     -5.49241  eV     1   --> A_1  G_1 D_1   
     e(  2 -  2) =      5.69276  eV     1   --> B_2  G_4 D_2'  
     e(  3 -  4) =      5.97047  eV     2   --> E    G_5 D_5   
     e(  5 -  5) =      8.70439  eV     1   --> A_1  G_1 D_1   
     e(  6 -  7) =      9.70453  eV     2   --> E    G_5 D_5   
     e(  8 -  8) =     10.70580  eV     1   --> B_2  G_4 D_2'  
     e(  9 -  9) =     13.33978  eV     1   --> B_2  G_4 D_2'  
     e( 10 - 10) =     14.38628  eV     1   --> A_2  G_2 D_1'  
     e( 11 - 11) =     15.07489  eV     1   --> A_1  G_1 D_1   
     e( 12 - 12) =     18.00460  eV     1   -->   ?

 **************************************************************************

 **************************************************************************

                    xk=(   0.20000,   0.00000,   0.00000  )

     Band symmetry, C_4v (4mm)  point group:

     e(  1 -  1) =     -5.45874  eV     1   --> A_1  G_1 D_1   
     e(  2 -  2) =      5.54325  eV     1   --> B_2  G_4 D_2'  
     e(  3 -  4) =      5.87906  eV     2   --> E    G_5 D_5   
     e(  5 -  5) =      8.63854  eV     1   --> A_1  G_1 D_1   
     e(  6 -  7) =      9.83622  eV     2   --> E    G_5 D_5   
     e(  8 -  8) =     10.81082  eV     1   --> B_2  G_4 D_2'  
     e(  9 -  9) =     13.21400  eV     1   --> B_2  G_4 D_2'  
     e( 10 - 10) =     14.42030  eV     1   --> A_2  G_2 D_1'  
     e( 11 - 11) =     15.20595  eV     1   --> A_1  G_1 D_1   
     e( 12 - 12) =     18.06234  eV     1   -->   ?

 **************************************************************************

 **************************************************************************

                    xk=(   0.22000,   0.00000,   0.00000  )

     Band symmetry, C_4v (4mm)  point group:

     e(  1 -  1) =     -5.42151  eV     1   --> A_1  G_1 D_1   
     e(  2 -  2) =      5.38854  eV     1   --> B_2  G_4 D_2'  
     e(  3 -  4) =      5.78571  eV     2   --> E    G_5 D_5   
     e(  5 -  5) =      8.56991  eV     1   --> A_1  G_1 D_1   
     e(  6 -  7) =      9.97496  eV     2   --> E    G_5 D_5   
     e(  8 -  8) =     10.90144  eV     1   --> B_2  G_4 D_2'  
     e(  9 -  9) =     13.10583  eV     1   --> B_2  G_4 D_2'  
     e( 10 - 10) =     14.46154  eV     1   --> A_2  G_2 D_1'  
     e( 11 - 11) =     15.34706  eV     1   --> A_1  G_1 D_1   
     e( 12 - 12) =     18.12679  eV     1   -->   ?

 **************************************************************************

 **************************************************************************

                    xk=(   0.24000,   0.00000,   0.00000  )

     Band symmetry, C_4v (4mm)  point group:

     e(  1 -  1) =     -5.38078  eV     1   --> A_1  G_1 D_1   
     e(  2 -  2) =      5.22887  eV     1   --> B_2  G_4 D_2'  
     e(  3 -  4) =      5.69104  eV     2   --> E    G_5 D_5   
     e(  5 -  5) =      8.49868  eV     1   --> A_1  G_1 D_1   
     e(  6 -  7) =     10.11922  eV     2   --> E    G_5 D_5   
     e(  8 -  8) =     10.96912  eV     1   --> B_2  G_4 D_2'  
     e(  9 -  9) =     13.02418  eV     1   --> B_2  G_4 D_2'  
     e( 10 - 10) =     14.50670  eV     1   --> A_2  G_2 D_1'  
     e( 11 - 11) =     15.49742  eV     1   --> A_1  G_1 D_1   
     e( 12 - 12) =     18.19718  eV     1   -->   ?

 **************************************************************************

 **************************************************************************

                    xk=(   0.26000,   0.00000,   0.00000  )

     Band symmetry, C_4v (4mm)  point group:

     e(  1 -  1) =     -5.33653  eV     1   --> A_1  G_1 D_1   
     e(  2 -  2) =      5.06512  eV     1   --> B_2  G_4 D_2'  
     e(  3 -  4) =      5.59574  eV     2   --> E    G_5 D_5   
     e(  5 -  5) =      8.42547  eV     1   --> A_1  G_1 D_1   
     e(  6 -  7) =     10.26827  eV     2   --> E    G_5 D_5   
     e(  8 -  8) =     11.00519  eV     1   --> B_2  G_4 D_2'  
     e(  9 -  9) =     12.97820  eV     1   --> B_2  G_4 D_2'  
     e( 10 - 10) =     14.55578  eV     1   --> A_2  G_2 D_1'  
     e( 11 - 11) =     15.65633  eV     1   --> A_1  G_1 D_1   
     e( 12 - 12) =     18.27345  eV     1   -->   ?

 **************************************************************************

 **************************************************************************

                    xk=(   0.28000,   0.00000,   0.00000  )

     Band symmetry, C_4v (4mm)  point group:

     e(  1 -  1) =     -5.28884  eV     1   --> A_1  G_1 D_1   
     e(  2 -  2) =      4.89788  eV     1   --> B_2  G_4 D_2'  
     e(  3 -  4) =      5.50033  eV     2   --> E    G_5 D_5   
     e(  5 -  5) =      8.34901  eV     1   --> A_1  G_1 D_1   
     e(  6 -  7) =     10.42001  eV     2   --> E    G_5 D_5   
     e(  8 -  8) =     11.00323  eV     1   --> B_2  G_4 D_2'  
     e(  9 -  9) =     12.97401  eV     1   --> B_2  G_4 D_2'  
     e( 10 - 10) =     14.60719  eV     1   --> A_2  G_2 D_1'  
     e( 11 - 11) =     15.82309  eV     1   --> A_1  G_1 D_1   
     e( 12 - 12) =     18.35548  eV     1   -->   ?

 **************************************************************************

 **************************************************************************

                    xk=(   0.30000,   0.00000,   0.00000  )

     Band symmetry, C_4v (4mm)  point group:

     e(  1 -  1) =     -5.23762  eV     1   --> A_1  G_1 D_1   
     e(  2 -  2) =      4.72789  eV     1   --> B_2  G_4 D_2'  
     e(  3 -  4) =      5.40534  eV     2   --> E    G_5 D_5   
     e(  5 -  5) =      8.27357  eV     1   --> A_1  G_1 D_1   
     e(  6 -  7) =     10.57693  eV     2   --> E    G_5 D_5   
     e(  8 -  8) =     10.96176  eV     1   --> B_2  G_4 D_2'  
     e(  9 -  9) =     13.01468  eV     1   --> B_2  G_4 D_2'  
     e( 10 - 10) =     14.66410  eV     1   --> A_2  G_2 D_1'  
     e( 11 - 11) =     15.99706  eV     1   --> A_1  G_1 D_1   
     e( 12 - 12) =     18.44316  eV     1   -->   ?

 **************************************************************************

 **************************************************************************

                    xk=(   0.32000,   0.00000,   0.00000  )

     Band symmetry, C_4v (4mm)  point group:

     e(  1 -  1) =     -5.18294  eV     1   --> A_1  G_1 D_1   
     e(  2 -  2) =      4.55554  eV     1   --> B_2  G_4 D_2'  
     e(  3 -  4) =      5.31114  eV     2   --> E    G_5 D_5   
     e(  5 -  5) =      8.19778  eV     1   --> A_1  G_1 D_1   
     e(  6 -  7) =     10.73713  eV     2   --> E    G_5 D_5   
     e(  8 -  8) =     10.88468  eV     1   --> B_2  G_4 D_2'  
     e(  9 -  9) =     13.09592  eV     1   --> B_2  G_4 D_2'  
     e( 10 - 10) =     14.72492  eV     1   --> A_2  G_2 D_1'  
     e( 11 - 11) =     16.17763  eV     1   --> A_1  G_1 D_1   
     e( 12 - 12) =     18.53632  eV     1   -->   ?

 **************************************************************************

 **************************************************************************

                    xk=(   0.34000,   0.00000,   0.00000  )

     Band symmetry, C_4v (4mm)  point group:

     e(  1 -  1) =     -5.12479  eV     1   --> A_1  G_1 D_1   
     e(  2 -  2) =      4.38123  eV     1   --> B_2  G_4 D_2'  
     e(  3 -  4) =      5.21804  eV     2   --> E    G_5 D_5   
     e(  5 -  5) =      8.12208  eV     1   --> A_1  G_1 D_1   
     e(  6 -  6) =     10.77913  eV     1   --> B_2  G_4 D_2'  
     e(  7 -  8) =     10.90026  eV     2   --> E    G_5 D_5   
     e(  9 -  9) =     13.21082  eV     1   --> B_2  G_4 D_2'  
     e( 10 - 10) =     14.78966  eV     1   --> A_2  G_2 D_1'  
     e( 11 - 11) =     16.36421  eV     1   --> A_1  G_1 D_1   
     e( 12 - 12) =     18.63475  eV     1   -->   ?

 **************************************************************************

 **************************************************************************

                    xk=(   0.36000,   0.00000,   0.00000  )

     Band symmetry, C_4v (4mm)  point group:

     e(  1 -  1) =     -5.06320  eV     1   --> A_1  G_1 D_1   
     e(  2 -  2) =      4.20528  eV     1   --> B_2  G_4 D_2'  
     e(  3 -  4) =      5.12632  eV     2   --> E    G_5 D_5   
     e(  5 -  5) =      8.04687  eV     1   --> A_1  G_1 D_1   
     e(  6 -  6) =     10.65275  eV     1   --> B_2  G_4 D_2'  
     e(  7 -  8) =     11.06600  eV     2   --> E    G_5 D_5   
     e(  9 -  9) =     13.35187  eV     1   --> B_2  G_4 D_2'  
     e( 10 - 10) =     14.85831  eV     1   --> A_2  G_2 D_1'  
     e( 11 - 11) =     16.55621  eV     1   --> A_1  G_1 D_1   
     e( 12 - 12) =     18.73819  eV     1   -->   ?

 **************************************************************************

 **************************************************************************

                    xk=(   0.38000,   0.00000,   0.00000  )

     Band symmetry, C_4v (4mm)  point group:

     e(  1 -  1) =     -4.99817  eV     1   --> A_1  G_1 D_1   
     e(  2 -  2) =      4.02795  eV     1   --> B_2  G_4 D_2'  
     e(  3 -  4) =      5.03621  eV     2   --> E    G_5 D_5   
     e(  5 -  5) =      7.97253  eV     1   --> A_1  G_1 D_1   
     e(  6 -  6) =     10.51210  eV     1   --> B_2  G_4 D_2'  
     e(  7 -  8) =     11.23409  eV     2   --> E    G_5 D_5   
     e(  9 -  9) =     13.51265  eV     1   --> B_2  G_4 D_2'  
     e( 10 - 10) =     14.93087  eV     1   --> A_2  G_2 D_1'  
     e( 11 - 11) =     16.75310  eV     1   --> A_1  G_1 D_1   
     e( 12 - 12) =     18.84631  eV     1   -->   ?

 **************************************************************************

 **************************************************************************

                    xk=(   0.40000,   0.00000,   0.00000  )

     Band symmetry, C_4v (4mm)  point group:

     e(  1 -  1) =     -4.92974  eV     1   --> A_1  G_1 D_1   
     e(  2 -  2) =      3.84946  eV     1   --> B_2  G_4 D_2'  
     e(  3 -  4) =      4.94778  eV     2   --> E    G_5 D_5   
     e(  5 -  5) =      7.89893  eV     1   --> A_1  G_1 D_1   
     e(  6 -  6) =     10.36221  eV     1   --> B_2  G_4 D_2'  
     e(  7 -  8) =     11.40419  eV     2   --> E    G_5 D_5   
     e(  9 -  9) =     13.68818  eV     1   --> B_2  G_4 D_2'  
     e( 10 - 10) =     15.00733  eV     1   --> A_2  G_2 D_1'  
     e( 11 - 11) =     16.95427  eV     1   --> A_1  G_1 D_1   
     e( 12 - 12) =     18.95768  eV     1   -->   ?

 **************************************************************************

 **************************************************************************

                    xk=(   0.42000,   0.00000,   0.00000  )

     Band symmetry, C_4v (4mm)  point group:

     e(  1 -  1) =     -4.85791  eV     1   --> A_1  G_1 D_1   
     e(  2 -  2) =      3.67003  eV     1   --> B_2  G_4 D_2'  
     e(  3 -  4) =      4.86147  eV     2   --> E    G_5 D_5   
     e(  5 -  5) =      7.82723  eV     1   --> A_1  G_1 D_1   
     e(  6 -  6) =     10.20681  eV     1   --> B_2  G_4 D_2'  
     e(  7 -  8) =     11.57634  eV     2   --> E    G_5 D_5   
     e(  9 -  9) =     13.87483  eV     1   --> B_2  G_4 D_2'  
     e( 10 - 10) =     15.08770  eV     1   --> A_2  G_2 D_1'  
     e( 11 - 11) =     17.15922  eV     1   --> A_1  G_1 D_1   
     e( 12 - 12) =     19.07367  eV     1   -->   ?

 **************************************************************************

 **************************************************************************

                    xk=(   0.44000,   0.00000,   0.00000  )

     Band symmetry, C_4v (4mm)  point group:

     e(  1 -  1) =     -4.78269  eV     1   --> A_1  G_1 D_1   
     e(  2 -  2) =      3.48981  eV     1   --> B_2  G_4 D_2'  
     e(  3 -  4) =      4.77730  eV     2   --> E    G_5 D_5   
     e(  5 -  5) =      7.75727  eV     1   --> A_1  G_1 D_1   
     e(  6 -  6) =     10.04860  eV     1   --> B_2  G_4 D_2'  
     e(  7 -  8) =     11.75025  eV     2   --> E    G_5 D_5   
     e(  9 -  9) =     14.06990  eV     1   --> B_2  G_4 D_2'  
     e( 10 - 10) =     15.17197  eV     1   --> A_2  G_2 D_1'  
     e( 11 - 11) =     17.36735  eV     1   --> A_1  G_1 D_1   
     e( 12 - 12) =     19.19265  eV     1   -->   ?

 **************************************************************************

 **************************************************************************

                    xk=(   0.46000,   0.00000,   0.00000  )

     Band symmetry, C_4v (4mm)  point group:

     e(  1 -  1) =     -4.70412  eV     1   --> A_1  G_1 D_1   
     e(  2 -  2) =      3.30896  eV     1   --> B_2  G_4 D_2'  
     e(  3 -  4) =      4.69539  eV     2   --> E    G_5 D_5   
     e(  5 -  5) =      7.68930  eV     1   --> A_1  G_1 D_1   
     e(  6 -  6) =      9.88954  eV     1   --> B_2  G_4 D_2'  
     e(  7 -  8) =     11.92578  eV     2   --> E    G_5 D_5   
     e(  9 -  9) =     14.27143  eV     1   --> B_2  G_4 D_2'  
     e( 10 - 10) =     15.26014  eV     1   --> A_2  G_2 D_1'  
     e( 11 - 11) =     17.57804  eV     1   --> A_1  G_1 D_1   
     e( 12 - 12) =     19.31370  eV     1   -->   ?

 **************************************************************************

 **************************************************************************

                    xk=(   0.48000,   0.00000,   0.00000  )

     Band symmetry, C_4v (4mm)  point group:

     e(  1 -  1) =     -4.62220  eV     1   --> A_1  G_1 D_1   
     e(  2 -  2) =      3.12760  eV     1   --> B_2  G_4 D_2'  
     e(  3 -  4) =      4.61599  eV     2   --> E    G_5 D_5   
     e(  5 -  5) =      7.62394  eV     1   --> A_1  G_1 D_1   
     e(  6 -  6) =      9.73330  eV     1   --> B_2  G_4 D_2'  
     e(  7 -  8) =     12.10436  eV     2   --> E    G_5 D_5   
     e(  9 -  9) =     14.47862  eV     1   --> B_2  G_4 D_2'  
     e( 10 - 10) =     15.35237  eV     1   --> A_2  G_2 D_1'  
     e( 11 - 11) =     17.79078  eV     1   --> A_1  G_1 D_1   
     e( 12 - 12) =     19.43798  eV     1   -->   ?

 **************************************************************************

 **************************************************************************

                    xk=(   0.50000,   0.00000,   0.00000  )

     Band symmetry, C_4v (4mm)  point group:

     e(  1 -  1) =     -4.53696  eV     1   --> A_1  G_1 D_1   
     e(  2 -  2) =      2.94587  eV     1   --> B_2  G_4 D_2'  
     e(  3 -  4) =      4.53891  eV     2   --> E    G_5 D_5   
     e(  5 -  5) =      7.56061  eV     1   --> A_1  G_1 D_1   
     e(  6 -  6) =      9.57647  eV     1   --> B_2  G_4 D_2'  
     e(  7 -  8) =     12.28277  eV     2   --> E    G_5 D_5   
     e(  9 -  9) =     14.68887  eV     1   --> B_2  G_4 D_2'  
     e( 10 - 10) =     15.44833  eV     1   --> A_2  G_2 D_1'  
     e( 11 - 11) =     18.00460  eV     1   --> A_1  G_1 D_1   
     e( 12 - 12) =     19.55931  eV     1   -->   ?

 **************************************************************************

 **************************************************************************

                    xk=(   0.52000,   0.00000,   0.00000  )

     Band symmetry, C_4v (4mm)  point group:

     e(  1 -  1) =     -4.44843  eV     1   --> A_1  G_1 D_1   
     e(  2 -  2) =      2.76387  eV     1   --> B_2  G_4 D_2'  
     e(  3 -  4) =      4.46439  eV     2   --> E    G_5 D_5   
     e(  5 -  5) =      7.49986  eV     1   --> A_1  G_1 D_1   
     e(  6 -  6) =      9.42216  eV     1   --> B_2  G_4 D_2'  
     e(  7 -  8) =     12.46247  eV     2   --> E    G_5 D_5   
     e(  9 -  9) =     14.90202  eV     1   --> B_2  G_4 D_2'  
     e( 10 - 10) =     15.54817  eV     1   --> A_2  G_2 D_1'  
     e( 11 - 11) =     18.21884  eV     1   --> A_1  G_1 D_1   
     e( 12 - 12) =     19.67784  eV     1   -->   ?

 **************************************************************************

 **************************************************************************

                    xk=(   0.54000,   0.00000,   0.00000  )

     Band symmetry, C_4v (4mm)  point group:

     e(  1 -  1) =     -4.35662  eV     1   --> A_1  G_1 D_1   
     e(  2 -  2) =      2.58171  eV     1   --> B_2  G_4 D_2'  
     e(  3 -  4) =      4.39229  eV     2   --> E    G_5 D_5   
     e(  5 -  5) =      7.44183  eV     1   --> A_1  G_1 D_1   
     e(  6 -  6) =      9.27101  eV     1   --> B_2  G_4 D_2'  
     e(  7 -  8) =     12.64299  eV     2   --> E    G_5 D_5   
     e(  9 -  9) =     15.11732  eV     1   --> B_2  G_4 D_2'  
     e( 10 - 10) =     15.65189  eV     1   --> A_2  G_2 D_1'  
     e( 11 - 11) =     18.43261  eV     1   --> A_1  G_1 D_1   
     e( 12 - 12) =     19.78698  eV     1   -->   ?

 **************************************************************************

 **************************************************************************

                    xk=(   0.56000,   0.00000,   0.00000  )

     Band symmetry, C_4v (4mm)  point group:

     e(  1 -  1) =     -4.26157  eV     1   --> A_1  G_1 D_1   
     e(  2 -  2) =      2.39950  eV     1   --> B_2  G_4 D_2'  
     e(  3 -  4) =      4.32312  eV     2   --> E    G_5 D_5   
     e(  5 -  5) =      7.38674  eV     1   --> A_1  G_1 D_1   
     e(  6 -  6) =      9.12352  eV     1   --> B_2  G_4 D_2'  
     e(  7 -  8) =     12.82502  eV     2   --> E    G_5 D_5   
     e(  9 -  9) =     15.33417  eV     1   --> B_2  G_4 D_2'  
     e( 10 - 10) =     15.75950  eV     1   --> A_2  G_2 D_1'  
     e( 11 - 11) =     18.64490  eV     1   --> A_1  G_1 D_1   
     e( 12 - 12) =     19.89048  eV     1   -->   ?

 **************************************************************************

 **************************************************************************

                    xk=(   0.58000,   0.00000,   0.00000  )

     Band symmetry, C_4v (4mm)  point group:

     e(  1 -  1) =     -4.16330  eV     1   --> A_1  G_1 D_1   
     e(  2 -  2) =      2.21733  eV     1   --> B_2  G_4 D_2'  
     e(  3 -  4) =      4.25671  eV     2   --> E    G_5 D_5   
     e(  5 -  5) =      7.33470  eV     1   --> A_1  G_1 D_1   
     e(  6 -  6) =      8.98007  eV     1   --> B_2  G_4 D_2'  
     e(  7 -  8) =     13.00812  eV     2   --> E    G_5 D_5   
     e(  9 -  9) =     15.55201  eV     1   --> B_2  G_4 D_2'  
     e( 10 - 10) =     15.87097  eV     1   --> A_2  G_2 D_1'  
     e( 11 - 11) =     18.85457  eV     1   --> A_1  G_1 D_1   
     e( 12 - 12) =     19.98031  eV     1   -->   ?

 **************************************************************************

 **************************************************************************

                    xk=(   0.60000,   0.00000,   0.00000  )

     Band symmetry, C_4v (4mm)  point group:

     e(  1 -  1) =     -4.06183  eV     1   --> A_1  G_1 D_1   
     e(  2 -  2) =      2.03532  eV     1   --> B_2  G_4 D_2'  
     e(  3 -  4) =      4.19311  eV     2   --> E    G_5 D_5   
     e(  5 -  5) =      7.28584  eV     1   --> A_1  G_1 D_1   
     e(  6 -  6) =      8.84097  eV     1   --> B_2  G_4 D_2'  
     e(  7 -  8) =     13.19226  eV     2   --> E    G_5 D_5   
     e(  9 -  9) =     15.77039  eV     1   --> B_2  G_4 D_2'  
     e( 10 - 10) =     15.98632  eV     1   --> A_2  G_2 D_1'  
     e( 11 - 11) =     19.06027  eV     1   --> A_1  G_1 D_1   
     e( 12 - 12) =     20.05108  eV     1   -->   ?

 **************************************************************************

 **************************************************************************

                    xk=(   0.62000,   0.00000,   0.00000  )

     Band symmetry, C_4v (4mm)  point group:

     e(  1 -  1) =     -3.95720  eV     1   --> A_1  G_1 D_1   
     e(  2 -  2) =      1.85354  eV     1   --> B_2  G_4 D_2'  
     e(  3 -  4) =      4.13238  eV     2   --> E    G_5 D_5   
     e(  5 -  5) =      7.24028  eV     1   --> A_1  G_1 D_1   
     e(  6 -  6) =      8.70646  eV     1   --> B_2  G_4 D_2'  
     e(  7 -  8) =     13.37737  eV     2   --> E    G_5 D_5   
     e(  9 -  9) =     15.98887  eV     1   --> B_2  G_4 D_2'  
     e( 10 - 10) =     16.10554  eV     1   --> A_2  G_2 D_1'  
     e( 11 - 11) =     19.26047  eV     1   --> A_1  G_1 D_1   
     e( 12 - 12) =     20.09690  eV     1   -->   ?

 **************************************************************************

 **************************************************************************

                    xk=(   0.64000,   0.00000,   0.00000  )

     Band symmetry, C_4v (4mm)  point group:

     e(  1 -  1) =     -3.84945  eV     1   --> A_1  G_1 D_1   
     e(  2 -  2) =      1.67204  eV     1   --> B_2  G_4 D_2'  
     e(  3 -  4) =      4.07456  eV     2   --> E    G_5 D_5   
     e(  5 -  5) =      7.19812  eV     1   --> A_1  G_1 D_1   
     e(  6 -  6) =      8.57633  eV     1   --> B_2  G_4 D_2'  
     e(  7 -  8) =     13.56332  eV     2   --> E    G_5 D_5   
     e(  9 -  9) =     16.20674  eV     1   --> B_2  G_4 D_2'  
     e( 10 - 10) =     16.21964  eV     1   --> A_2  G_2 D_1'  
     e( 11 - 11) =     19.45338  eV     1   --> A_1  G_1 D_1   
     e( 12 - 12) =     20.11223  eV     1   -->   ?

 **************************************************************************

 **************************************************************************

                    xk=(   0.66000,   0.00000,   0.00000  )

     Band symmetry, C_4v (4mm)  point group:

     e(  1 -  1) =     -3.73858  eV     1   --> A_1  G_1 D_1   
     e(  2 -  2) =      1.49113  eV     1   --> B_2  G_4 D_2'  
     e(  3 -  4) =      4.01991  eV     2   --> E    G_5 D_5   
     e(  5 -  5) =      7.15950  eV     1   --> A_1  G_1 D_1   
     e(  6 -  6) =      8.45153  eV     1   --> B_2  G_4 D_2'  
     e(  7 -  8) =     13.75093  eV     2   --> E    G_5 D_5   
     e(  9 -  9) =     16.34726  eV     1   --> A_2  G_2 D_1'  
     e( 10 - 10) =     16.42475  eV     1   --> B_2  G_4 D_2'  
     e( 11 - 11) =     19.63704  eV     1   --> A_1  G_1 D_1   
     e( 12 - 12) =     20.09722  eV     1   -->   ?

 **************************************************************************

 **************************************************************************

                    xk=(   0.68000,   0.00000,   0.00000  )

     Band symmetry, C_4v (4mm)  point group:

     e(  1 -  1) =     -3.62467  eV     1   --> A_1  G_1 D_1   
     e(  2 -  2) =      1.31068  eV     1   --> B_2  G_4 D_2'  
     e(  3 -  4) =      3.96799  eV     2   --> E    G_5 D_5   
     e(  5 -  5) =      7.12446  eV     1   --> A_1  G_1 D_1   
     e(  6 -  6) =      8.33176  eV     1   --> B_2  G_4 D_2'  
     e(  7 -  8) =     13.93882  eV     2   --> E    G_5 D_5   
     e(  9 -  9) =     16.47795  eV     1   --> A_2  G_2 D_1'  
     e( 10 - 10) =     16.64142  eV     1   --> B_2  G_4 D_2'  
     e( 11 - 11) =     19.80902  eV     1   --> A_1  G_1 D_1   
     e( 12 - 12) =     20.04343  eV     1   -->   ?

 **************************************************************************

 **************************************************************************

                    xk=(   0.70000,   0.00000,   0.00000  )

     Band symmetry, C_4v (4mm)  point group:

     e(  1 -  1) =     -3.50774  eV     1   --> A_1  G_1 D_1   
     e(  2 -  2) =      1.13087  eV     1   --> B_2  G_4 D_2'  
     e(  3 -  4) =      3.91893  eV     2   --> E    G_5 D_5   
     e(  5 -  5) =      7.09270  eV     1   --> A_1  G_1 D_1   
     e(  6 -  6) =      8.21644  eV     1   --> B_2  G_4 D_2'  
     e(  7 -  8) =     14.12508  eV     2   --> E    G_5 D_5   
     e(  9 -  9) =     16.61156  eV     1   --> A_2  G_2 D_1'  
     e( 10 - 10) =     16.85678  eV     1   --> B_2  G_4 D_2'  
     e( 11 - 12) =     19.94869  eV     2   --> E    G_5 D_5   

 **************************************************************************

 **************************************************************************

                    xk=(   0.72000,   0.00000,   0.00000  )

     Band symmetry, C_4v (4mm)  point group:

     e(  1 -  1) =     -3.38781  eV     1   --> A_1  G_1 D_1   
     e(  2 -  2) =      0.95181  eV     1   --> B_2  G_4 D_2'  
     e(  3 -  4) =      3.87307  eV     2   --> E    G_5 D_5   
     e(  5 -  5) =      7.06513  eV     1   --> A_1  G_1 D_1   
     e(  6 -  6) =      8.10697  eV     1   --> B_2  G_4 D_2'  
     e(  7 -  8) =     14.31457  eV     2   --> E    G_5 D_5   
     e(  9 -  9) =     16.74991  eV     1   --> A_2  G_2 D_1'  
     e( 10 - 10) =     17.07067  eV     1   --> B_2  G_4 D_2'  
     e( 11 - 12) =     19.83336  eV     2   --> E    G_5 D_5   

 **************************************************************************

 **************************************************************************

                    xk=(   0.74000,   0.00000,   0.00000  )

     Band symmetry, C_4v (4mm)  point group:

     e(  1 -  1) =     -3.26494  eV     1   --> A_1  G_1 D_1   
     e(  2 -  2) =      0.77359  eV     1   --> B_2  G_4 D_2'  
     e(  3 -  4) =      3.83027  eV     2   --> E    G_5 D_5   
     e(  5 -  5) =      7.04144  eV     1   --> A_1  G_1 D_1   
     e(  6 -  6) =      8.00271  eV     1   --> B_2  G_4 D_2'  
     e(  7 -  8) =     14.50483  eV     2   --> E    G_5 D_5   
     e(  9 -  9) =     16.89208  eV     1   --> A_2  G_2 D_1'  
     e( 10 - 10) =     17.28276  eV     1   --> B_2  G_4 D_2'  
     e( 11 - 12) =     19.69500  eV     2   --> E    G_5 D_5   

 **************************************************************************

 **************************************************************************

                    xk=(   0.76000,   0.00000,   0.00000  )

     Band symmetry, C_4v (4mm)  point group:

[...]
     e(  5 -  5) =      8.45846  eV     1   --> A'             
     e(  6 -  6) =     10.31156  eV     1   --> A'             
     e(  7 -  7) =     10.81922  eV     1   --> A''            
     e(  8 -  8) =     11.19529  eV     1   --> A'             
     e(  9 -  9) =     13.51340  eV     1   --> A'             
     e( 10 - 10) =     14.62316  eV     1   --> A''            
     e( 11 - 11) =     16.41984  eV     1   --> A'             
     e( 12 - 12) =     17.97255  eV     1   --> A'             

 **************************************************************************

 **************************************************************************

                    xk=(   0.32000,   0.08000,   0.08000  )

     Band symmetry, C_s (m)     point group:

     e(  1 -  1) =     -5.12787  eV     1   --> A'             
     e(  2 -  2) =      4.07217  eV     1   --> A'             
     e(  3 -  3) =      5.33259  eV     1   --> A''            
     e(  4 -  4) =      5.45870  eV     1   --> A'             
     e(  5 -  5) =      8.49919  eV     1   --> A'             
     e(  6 -  6) =     10.22206  eV     1   --> A'             
     e(  7 -  7) =     10.67717  eV     1   --> A''            
     e(  8 -  8) =     11.26873  eV     1   --> A'             
     e(  9 -  9) =     13.33996  eV     1   --> A'             
     e( 10 - 10) =     14.55662  eV     1   --> A''            
     e( 11 - 11) =     16.25617  eV     1   --> A'             
     e( 12 - 12) =     17.89937  eV     1   --> A'             

 **************************************************************************

 **************************************************************************

                    xk=(   0.30000,   0.07500,   0.07500  )

     Band symmetry, C_s (m)     point group:

     e(  1 -  1) =     -5.18898  eV     1   --> A'             
     e(  2 -  2) =      4.26634  eV     1   --> A'             
     e(  3 -  3) =      5.42236  eV     1   --> A''            
     e(  4 -  4) =      5.56269  eV     1   --> A'             
     e(  5 -  5) =      8.54161  eV     1   --> A'             
     e(  6 -  6) =     10.12769  eV     1   --> A'             
     e(  7 -  7) =     10.53559  eV     1   --> A''            
     e(  8 -  8) =     11.32339  eV     1   --> A'             
     e(  9 -  9) =     13.20117  eV     1   --> A'             
     e( 10 - 10) =     14.49908  eV     1   --> A''            
     e( 11 - 11) =     16.08880  eV     1   --> A'             
     e( 12 - 12) =     17.84160  eV     1   --> A'             

 **************************************************************************

 **************************************************************************

                    xk=(   0.28000,   0.07000,   0.07000  )

     Band symmetry, C_s (m)     point group:

     e(  1 -  1) =     -5.24629  eV     1   --> A'             
     e(  2 -  2) =      4.46046  eV     1   --> A'             
     e(  3 -  3) =      5.51338  eV     1   --> A''            
     e(  4 -  4) =      5.66335  eV     1   --> A'             
     e(  5 -  5) =      8.58442  eV     1   --> A'             
     e(  6 -  6) =     10.03156  eV     1   --> A'             
     e(  7 -  7) =     10.39248  eV     1   --> A''            
     e(  8 -  8) =     11.34526  eV     1   --> A'             
     e(  9 -  9) =     13.10739  eV     1   --> A'             
     e( 10 - 10) =     14.44859  eV     1   --> A''            
     e( 11 - 11) =     15.92039  eV     1   --> A'             
     e( 12 - 12) =     17.79681  eV     1   --> A'             

 **************************************************************************

 **************************************************************************

                    xk=(   0.26000,   0.06500,   0.06500  )

     Band symmetry, C_s (m)     point group:

     e(  1 -  1) =     -5.29974  eV     1   --> A'             
     e(  2 -  2) =      4.65424  eV     1   --> A'             
     e(  3 -  3) =      5.60531  eV     1   --> A''            
     e(  4 -  4) =      5.76038  eV     1   --> A'             
     e(  5 -  5) =      8.62809  eV     1   --> A'             
     e(  6 -  6) =      9.93576  eV     1   --> A'             
     e(  7 -  7) =     10.25009  eV     1   --> A''            
     e(  8 -  8) =     11.32467  eV     1   --> A'             
     e(  9 -  9) =     13.06751  eV     1   --> A'             
     e( 10 - 10) =     14.40911  eV     1   --> A''            
     e( 11 - 11) =     15.75340  eV     1   --> A'             
     e( 12 - 12) =     17.76343  eV     1   --> A'             

 **************************************************************************

 **************************************************************************

                    xk=(   0.24000,   0.06000,   0.06000  )

     Band symmetry, C_s (m)     point group:

     e(  1 -  1) =     -5.34931  eV     1   --> A'             
     e(  2 -  2) =      4.84706  eV     1   --> A'             
     e(  3 -  3) =      5.69768  eV     1   --> A''            
     e(  4 -  4) =      5.85334  eV     1   --> A'             
     e(  5 -  5) =      8.67252  eV     1   --> A'             
     e(  6 -  6) =      9.84058  eV     1   --> A'             
     e(  7 -  7) =     10.10993  eV     1   --> A''            
     e(  8 -  8) =     11.25893  eV     1   --> A'             
     e(  9 -  9) =     13.08128  eV     1   --> A'             
     e( 10 - 10) =     14.37247  eV     1   --> A''            
     e( 11 - 11) =     15.59000  eV     1   --> A'             
     e( 12 - 12) =     17.73940  eV     1   --> A'             

 **************************************************************************

 **************************************************************************

                    xk=(   0.22000,   0.05500,   0.05500  )

     Band symmetry, C_s (m)     point group:

     e(  1 -  1) =     -5.39499  eV     1   --> A'             
     e(  2 -  2) =      5.03815  eV     1   --> A'             
     e(  3 -  3) =      5.78991  eV     1   --> A''            
     e(  4 -  4) =      5.94184  eV     1   --> A'             
     e(  5 -  5) =      8.71647  eV     1   --> A'             
     e(  6 -  6) =      9.74701  eV     1   --> A'             
     e(  7 -  7) =      9.97172  eV     1   --> A''            
     e(  8 -  8) =     11.15552  eV     1   --> A'             
     e(  9 -  9) =     13.14108  eV     1   --> A'             
     e( 10 - 10) =     14.34117  eV     1   --> A''            
     e( 11 - 11) =     15.43215  eV     1   --> A'             
     e( 12 - 12) =     17.72341  eV     1   --> A'             

 **************************************************************************

 **************************************************************************

                    xk=(   0.20000,   0.05000,   0.05000  )

     Band symmetry, C_s (m)     point group:

     e(  1 -  1) =     -5.43676  eV     1   --> A'             
     e(  2 -  2) =      5.22660  eV     1   --> A'             
     e(  3 -  3) =      5.88132  eV     1   --> A''            
     e(  4 -  4) =      6.02545  eV     1   --> A'             
     e(  5 -  5) =      8.75995  eV     1   --> A'             
     e(  6 -  6) =      9.65551  eV     1   --> A'             
     e(  7 -  7) =      9.83715  eV     1   --> A''            
     e(  8 -  8) =     11.02596  eV     1   --> A'             
     e(  9 -  9) =     13.23501  eV     1   --> A'             
     e( 10 - 10) =     14.31501  eV     1   --> A''            
     e( 11 - 11) =     15.28161  eV     1   --> A'             
     e( 12 - 12) =     17.71414  eV     1   --> A'             

 **************************************************************************

 **************************************************************************

                    xk=(   0.18000,   0.04500,   0.04500  )

     Band symmetry, C_s (m)     point group:

     e(  1 -  1) =     -5.47459  eV     1   --> A'             
     e(  2 -  2) =      5.41121  eV     1   --> A'             
     e(  3 -  3) =      5.97107  eV     1   --> A''            
     e(  4 -  4) =      6.10368  eV     1   --> A'             
     e(  5 -  5) =      8.80239  eV     1   --> A'             
     e(  6 -  6) =      9.56642  eV     1   --> A'             
     e(  7 -  7) =      9.70738  eV     1   --> A''            
     e(  8 -  8) =     10.88159  eV     1   --> A'             
     e(  9 -  9) =     13.35131  eV     1   --> A'             
     e( 10 - 10) =     14.29341  eV     1   --> A''            
     e( 11 - 11) =     15.13995  eV     1   --> A'             
     e( 12 - 12) =     17.71039  eV     1   --> A'             

 **************************************************************************

 **************************************************************************

                    xk=(   0.16000,   0.04000,   0.04000  )

     Band symmetry, C_s (m)     point group:

     e(  1 -  1) =     -5.50847  eV     1   --> A'             
     e(  2 -  2) =      5.59048  eV     1   --> A'             
     e(  3 -  3) =      6.05816  eV     1   --> A''            
     e(  4 -  4) =      6.17603  eV     1   --> A'             
     e(  5 -  5) =      8.84379  eV     1   --> A'             
     e(  6 -  6) =      9.48076  eV     1   --> A'             
     e(  7 -  7) =      9.58464  eV     1   --> A''            
     e(  8 -  8) =     10.73188  eV     1   --> A'             
     e(  9 -  9) =     13.48076  eV     1   --> A'             
     e( 10 - 10) =     14.27619  eV     1   --> A''            
     e( 11 - 11) =     15.00864  eV     1   --> A'             
     e( 12 - 12) =     17.71107  eV     1   --> A'             

 **************************************************************************

 **************************************************************************

                    xk=(   0.14000,   0.03500,   0.03500  )

     Band symmetry, C_s (m)     point group:

     e(  1 -  1) =     -5.53839  eV     1   --> A'             
     e(  2 -  2) =      5.76251  eV     1   --> A'             
     e(  3 -  3) =      6.14142  eV     1   --> A''            
     e(  4 -  4) =      6.24203  eV     1   --> A'             
     e(  5 -  5) =      8.88231  eV     1   --> A'             
     e(  6 -  6) =      9.39746  eV     1   --> A'             
     e(  7 -  7) =      9.46897  eV     1   --> A''            
     e(  8 -  8) =     10.58427  eV     1   --> A'             
     e(  9 -  9) =     13.61914  eV     1   --> A'             
     e( 10 - 10) =     14.26303  eV     1   --> A''            
     e( 11 - 11) =     14.88904  eV     1   --> A'             
     e( 12 - 12) =     17.71513  eV     1   --> A'             

 **************************************************************************

 **************************************************************************

                    xk=(   0.12000,   0.03000,   0.03000  )

     Band symmetry, C_s (m)     point group:

     e(  1 -  1) =     -5.56435  eV     1   --> A'             
     e(  2 -  2) =      5.92469  eV     1   --> A'             
     e(  3 -  3) =      6.21929  eV     1   --> A''            
     e(  4 -  4) =      6.30081  eV     1   --> A'             
     e(  5 -  5) =      8.91765  eV     1   --> A'             
     e(  6 -  6) =      9.31823  eV     1   --> A'             
     e(  7 -  7) =      9.36224  eV     1   --> A''            
     e(  8 -  8) =     10.44459  eV     1   --> A'             
     e(  9 -  9) =     13.75658  eV     1   --> A'             
     e( 10 - 10) =     14.25184  eV     1   --> A''            
     e( 11 - 11) =     14.78241  eV     1   --> A'             
     e( 12 - 12) =     17.72142  eV     1   --> A'             

 **************************************************************************

 **************************************************************************

                    xk=(   0.10000,   0.02500,   0.02500  )

     Band symmetry, C_s (m)     point group:

     e(  1 -  1) =     -5.58633  eV     1   --> A'             
     e(  2 -  2) =      6.07423  eV     1   --> A'             
     e(  3 -  3) =      6.29020  eV     1   --> A''            
     e(  4 -  4) =      6.35204  eV     1   --> A'             
     e(  5 -  5) =      8.94919  eV     1   --> A'             
     e(  6 -  6) =      9.24354  eV     1   --> A'             
     e(  7 -  7) =      9.26656  eV     1   --> A''            
     e(  8 -  8) =     10.31811  eV     1   --> A'             
     e(  9 -  9) =     13.88314  eV     1   --> A'             
     e( 10 - 10) =     14.24394  eV     1   --> A''            
     e( 11 - 11) =     14.68992  eV     1   --> A'             
     e( 12 - 12) =     17.72955  eV     1   --> A'             

 **************************************************************************

 **************************************************************************

                    xk=(   0.08000,   0.02000,   0.02000  )

     Band symmetry, C_s (m)     point group:

     e(  1 -  1) =     -5.60432  eV     1   --> A'             
     e(  2 -  2) =      6.20671  eV     1   --> A'             
     e(  3 -  3) =      6.35244  eV     1   --> A''            
     e(  4 -  4) =      6.39488  eV     1   --> A'             
     e(  5 -  5) =      8.97606  eV     1   --> A'             
     e(  6 -  6) =      9.17454  eV     1   --> A'             
     e(  7 -  7) =      9.18453  eV     1   --> A''            
     e(  8 -  8) =     10.20913  eV     1   --> A'             
     e(  9 -  9) =     13.99755  eV     1   --> A'             
     e( 10 - 10) =     14.23741  eV     1   --> A''            
     e( 11 - 11) =     14.61265  eV     1   --> A'             
     e( 12 - 12) =     17.73717  eV     1   --> A'             

 **************************************************************************

 **************************************************************************

                    xk=(   0.06000,   0.01500,   0.01500  )

     Band symmetry, C_s (m)     point group:

     e(  1 -  1) =     -5.61832  eV     1   --> A'             
     e(  2 -  2) =      6.31782  eV     1   --> A'             
     e(  3 -  3) =      6.40356  eV     1   --> A''            
     e(  4 -  4) =      6.42894  eV     1   --> A'             
     e(  5 -  5) =      8.99766  eV     1   --> A'             
     e(  6 -  6) =      9.11479  eV     1   --> A'             
     e(  7 -  7) =      9.11730  eV     1   --> A''            
     e(  8 -  8) =     10.12116  eV     1   --> A'             
     e(  9 -  9) =     14.09351  eV     1   --> A'             
     e( 10 - 10) =     14.23269  eV     1   --> A''            
     e( 11 - 11) =     14.55149  eV     1   --> A'             
     e( 12 - 12) =     17.74437  eV     1   --> A'             

 **************************************************************************

 **************************************************************************

                    xk=(   0.04000,   0.01000,   0.01000  )

     Band symmetry, C_s (m)     point group:

     e(  1 -  1) =     -5.62833  eV     1   --> A'             
     e(  2 -  2) =      6.40232  eV     1   --> A'             
     e(  3 -  3) =      6.44183  eV     1   --> A''            
     e(  4 -  4) =      6.45362  eV     1   --> A'             
     e(  5 -  5) =      9.01346  eV     1   --> A'             
     e(  6 -  7) =      9.06744  eV     2   --> A'             
     e(  6 -  7) =      9.06744  eV     2   --> A''            
     e(  8 -  8) =     10.05677  eV     1   --> A'             
     e(  9 -  9) =     14.16608  eV     1   --> A'             
     e( 10 - 10) =     14.22952  eV     1   --> A''            
     e( 11 - 11) =     14.50722  eV     1   --> A'             
     e( 12 - 12) =     17.74999  eV     1   --> A'             

 **************************************************************************

 **************************************************************************

                    xk=(   0.02000,   0.00500,   0.00500  )

     Band symmetry, C_s (m)     point group:

     e(  1 -  1) =     -5.63433  eV     1   --> A'             
     e(  2 -  2) =      6.45546  eV     1   --> A'             
     e(  3 -  3) =      6.46557  eV     1   --> A''            
     e(  4 -  4) =      6.46860  eV     1   --> A'             
     e(  5 -  5) =      9.02310  eV     1   --> A'             
     e(  6 -  6) =      9.03672  eV     1   --> A''            
     e(  7 -  7) =      9.03694  eV     1   --> A'             
     e(  8 -  8) =     10.01759  eV     1   --> A'             
     e(  9 -  9) =     14.21158  eV     1   --> A'             
     e( 10 - 10) =     14.22769  eV     1   --> A''            
     e( 11 - 11) =     14.48042  eV     1   --> A'             
     e( 12 - 12) =     17.75361  eV     1   --> A'             

 **************************************************************************

 **************************************************************************

                    xk=(   0.00000,   0.00000,   0.00000  )

     point group O_h (m-3m) 
     there are 10 classes
     the character table:

       E     8C3   3C2   6C4   6C2'  i     8S6   3s_h  6S4   6s_d 
A_1g   1.00  1.00  1.00  1.00  1.00  1.00  1.00  1.00  1.00  1.00
A_2g   1.00  1.00  1.00 -1.00 -1.00  1.00  1.00  1.00 -1.00 -1.00
E_g    2.00 -1.00  2.00  0.00  0.00  2.00 -1.00  2.00  0.00  0.00
T_1g   3.00  0.00 -1.00  1.00 -1.00  3.00  0.00 -1.00  1.00 -1.00
T_2g   3.00  0.00 -1.00 -1.00  1.00  3.00  0.00 -1.00 -1.00  1.00
A_1u   1.00  1.00  1.00  1.00  1.00 -1.00 -1.00 -1.00 -1.00 -1.00
A_2u   1.00  1.00  1.00 -1.00 -1.00 -1.00 -1.00 -1.00  1.00  1.00
E_u    2.00 -1.00  2.00  0.00  0.00 -2.00  1.00 -2.00  0.00  0.00
T_1u   3.00  0.00 -1.00  1.00 -1.00 -3.00  0.00  1.00 -1.00  1.00
T_2u   3.00  0.00 -1.00 -1.00  1.00 -3.00  0.00  1.00  1.00 -1.00

     the symmetry operations in each class and the name of the first element:

     E        1
                                                                 
     8C3     17   19   20   18   24   21   22   23
                                                                 
     3C2      2    4    3
                                                                 
     6C4      7    8   15   16   12   11
                                                                 
     6C2'     5    6   14   13   10    9
                                                                 
     i       25
                                                                 
     8S6     41   43   44   42   48   45   46   47
                                                                 
     3s_h    26   28   27
                                                                 
     6S4     31   32   39   40   36   35
                                                                 
     6s_d    29   30   38   37   34   33
                                                                 

     Band symmetry, O_h (m-3m)  point group:

     e(  1 -  1) =     -5.63634  eV     1   --> A_1g G_1   G_1+
     e(  2 -  4) =      6.47362  eV     3   --> T_2g G_25' G_5+
     e(  5 -  7) =      9.02634  eV     3   --> T_1u G_15  G_4-
     e(  8 -  8) =     10.00444  eV     1   --> A_2u G_2'  G_2-
     e(  9 - 10) =     14.22709  eV     2   --> E_u  G_12' G_3-
     e( 11 - 11) =     14.47145  eV     1   --> A_1g G_1   G_1+
     e( 12 - 12) =     17.75487  eV     1   -->   ?

 **************************************************************************
 
     BANDS        :      2.59s CPU      2.71s WALL

 
   This run was terminated on:  20:48: 6  27Apr2026            

=------------------------------------------------------------------------------=
   JOB DONE.
=------------------------------------------------------------------------------=
